 Entering Gaussian System, Link 0=g16
 AtFile(1): pcseg2.gbs
            -H     0
            S   4   1.00
                  0.754732D+02           0.427821D-02
                  0.113575D+02           0.328672D-01
                  0.260081D+01           0.159578D+00
                  0.735503D+00           0.500000D+00
            S   1   1.00
                  0.231761D+00           1.0000000
            S   1   1.00
                  0.741675D-01           1.0000000
            P   1   1.00
                  0.160000D+01           1.0000000
            P   1   1.00
                  0.450000D+00           1.0000000
            D   1   1.00
                  0.125000D+01           1.0000000
            ****
            -C     0
            S   7   1.00
                  0.731999D+04           0.695369D-03
                  0.109818D+04           0.537138D-02
                  0.250014D+03           0.274734D-01
                  0.707586D+02           0.105078D+00
                  0.228595D+02           0.291262D+00
                  0.803936D+01           0.500000D+00
                  0.289309D+01           0.362224D+00
            S   2   1.00
                  0.521640D+01          -0.957844D-01
                  0.556124D+00           0.500000D+00
            S   1   1.00
                  0.228813D+00           1.0000000
            S   1   1.00
                  0.936338D-01           1.0000000
            P   4   1.00
                  0.339855D+02           0.818395D-02
                  0.772957D+01           0.586921D-01
                  0.224954D+01           0.222514D+00
                  0.767681D+00           0.500000D+00
            P   1   1.00
                  0.263283D+00           1.0000000
            P   1   1.00
                  0.848744D-01           1.0000000
            D   1   1.00
                  0.140000D+01           1.0000000
            D   1   1.00
                  0.450000D+00           1.0000000
            F   1   1.00
                  0.950000D+00           1.0000000
            ****
            -O     0
            S   7   1.00
                  0.135887D+05           0.665492D-03
                  0.203847D+04           0.514222D-02
                  0.464041D+03           0.263472D-01
                  0.131339D+03           0.101500D+00
                  0.425340D+02           0.285877D+00
                  0.150429D+02           0.500000D+00
                  0.546616D+01           0.368211D+00
            S   2   1.00
                  0.100915D+02          -0.100084D+00
                  0.110429D+01           0.500000D+00
            S   1   1.00
                  0.448082D+00           1.0000000
            S   1   1.00
                  0.175325D+00           1.0000000
            P   4   1.00
                  0.608220D+02           0.908253D-02
                  0.140332D+02           0.645878D-01
                  0.418244D+01           0.241502D+00
                  0.142490D+01           0.500000D+00
            P   1   1.00
                  0.478741D+00           1.0000000
            P   1   1.00
                  0.146257D+00           1.0000000
            D   1   1.00
                  0.220000D+01           1.0000000
            D   1   1.00
                  0.650000D+00           1.0000000
            F   1   1.00
                  0.110000D+01           1.0000000
            ****
            -N     0
            S   7   1.00
                  0.101643D+05           0.682757D-03
                  0.152481D+04           0.527488D-02
                  0.347119D+03           0.270037D-01
                  0.982389D+02           0.103673D+00
                  0.317799D+02           0.289575D+00
                  0.112240D+02           0.500000D+00
                  0.406611D+01           0.364621D+00
            S   2   1.00
                  0.747898D+01          -0.975681D-01
                  0.805040D+00           0.500000D+00
            S   1   1.00
                  0.324626D+00           1.0000000
            S   1   1.00
                  0.128132D+00           1.0000000
            P   4   1.00
                  0.482704D+02           0.829547D-02
                  0.110815D+02           0.596223D-01
                  0.326643D+01           0.227889D+00
                  0.111680D+01           0.500000D+00
            P   1   1.00
                  0.382049D+00           1.0000000
            P   1   1.00
                  0.121222D+00           1.0000000
            D   1   1.00
                  0.180000D+01           1.0000000
            D   1   1.00
                  0.550000D+00           1.0000000
            F   1   1.00
                  0.102000D+01           1.0000000
            ****
            -F     0
            S   7   1.00
                  0.174507D+05           0.655972D-03
                  0.261768D+04           0.506944D-02
                  0.595857D+03           0.259899D-01
                  0.168651D+03           0.100353D+00
                  0.546654D+02           0.284095D+00
                  0.193717D+02           0.500000D+00
                  0.706202D+01           0.370721D+00
            S   2   1.00
                  0.131197D+02          -0.101997D+00
                  0.145046D+01           0.500000D+00
            S   1   1.00
                  0.588255D+00           1.0000000
            S   1   1.00
                  0.227960D+00           1.0000000
            P   4   1.00
                  0.779407D+02           0.931135D-02
                  0.180425D+02           0.663964D-01
                  0.542342D+01           0.246386D+00
                  0.184876D+01           0.500000D+00
            P   1   1.00
                  0.617455D+00           1.0000000
            P   1   1.00
                  0.185496D+00           1.0000000
            D   1   1.00
                  0.280000D+01           1.0000000
            D   1   1.00
                  0.800000D+00           1.0000000
            F   1   1.00
                  0.120000D+01           1.0000000
            ****
            -Cl     0
            S   8   1.00
                  0.154272D+06           0.222473D-03
                  0.231232D+05           0.172590D-02
                  0.526257D+04           0.899286D-02
                  0.148995D+04           0.367724D-01
                  0.485417D+03           0.121446D+00
                  0.174634D+03           0.304148D+00
                  0.672393D+02           0.500000D+00
                  0.265780D+02           0.360252D+00
            S   3   1.00
                  0.131826D+03          -0.531330D-01
                  0.400703D+02          -0.233346D+00
                  0.789448D+01           0.500000D+00
            S   2   1.00
                  0.427711D+01           0.500000D+00
                  0.196233D+01           0.370517D+00
            S   1   1.00
                  0.520793D+00           1.0000000
            S   1   1.00
                  0.181633D+00           1.0000000
            P   7   1.00
                  0.124440D+04           0.988206D-03
                  0.295109D+03           0.829674D-02
                  0.947224D+02           0.430906D-01
                  0.352588D+02           0.148443D+00
                  0.144211D+02           0.344744D+00
                  0.610371D+01           0.500000D+00
                  0.258886D+01           0.348278D+00
            P   2   1.00
                  0.109447D+02          -0.196768D-01
                  0.104413D+01           0.500000D+00
            P   1   1.00
                  0.376184D+00           1.0000000
            P   1   1.00
                  0.120613D+00           1.0000000
            D   1   1.00
                  0.231000D+01           1.0000000
            D   1   1.00
                  0.520000D+00           1.0000000
            F   1   1.00
                  0.720000D+00           1.0000000
            ****
            -S     0
            S   8   1.00
                  0.134700D+06           0.226231D-03
                  0.201904D+05           0.175488D-02
                  0.459528D+04           0.914190D-02
                  0.130109D+04           0.373551D-01
                  0.423902D+03           0.123121D+00
                  0.152485D+03           0.306801D+00
                  0.586925D+02           0.500000D+00
                  0.231461D+02           0.354358D+00
            S   3   1.00
                  0.116327D+03          -0.491772D-01
                  0.352841D+02          -0.215962D+00
                  0.677831D+01           0.500000D+00
            S   2   1.00
                  0.360404D+01           0.500000D+00
                  0.164871D+01           0.366278D+00
            S   1   1.00
                  0.421821D+00           1.0000000
            S   1   1.00
                  0.147554D+00           1.0000000
            P   7   1.00
                  0.104863D+04           0.105273D-02
                  0.248717D+03           0.879338D-02
                  0.797887D+02           0.453358D-01
                  0.296023D+02           0.154476D+00
                  0.120627D+02           0.352366D+00
                  0.507628D+01           0.500000D+00
                  0.213375D+01           0.346429D+00
            P   2   1.00
                  0.928958D+01          -0.185932D-01
                  0.837819D+00           0.500000D+00
            P   1   1.00
                  0.301495D+00           1.0000000
            P   1   1.00
                  0.974740D-01           1.0000000
            D   1   1.00
                  0.210000D+01           1.0000000
            D   1   1.00
                  0.480000D+00           1.0000000
            F   1   1.00
                  0.660000D+00           1.0000000
            ****
            -Br     0
            S    10   1.00
                  0.233625D+07           0.532336D-04
                  0.349961D+06           0.413715D-03
                  0.796444D+05           0.217123D-02
                  0.225555D+05           0.910109D-02
                  0.735546D+04           0.323789D-01
                  0.265352D+04           0.988755D-01
                  0.103517D+04           0.248138D+00
                  0.422205D+03           0.474328D+00
                  0.180035D+03           0.500000D+00
                  0.793308D+02           0.187769D+00
            S    4   1.00
                  0.620834D+03          -0.226511D-01
                  0.190829D+03          -0.109497D+00
                  0.312505D+02           0.500000D+00
                  0.135270D+02           0.492812D+00
            S    2   1.00
                  0.216097D+02          -0.165418D+00
                  0.372566D+01           0.500000D+00
            S    1   1.00
                  0.169770D+01           1.0000000
            S    1   1.00
                  0.489332D+00           1.0000000
            S    1   1.00
                  0.175712D+00           1.0000000
            P    8   1.00
                  0.960829D+04           0.478974D-03
                  0.227618D+04           0.417853D-02
                  0.736723D+03           0.229315D-01
                  0.281579D+03           0.892653D-01
                  0.118395D+03           0.255288D+00
                  0.527481D+02           0.479074D+00
                  0.245098D+02           0.500000D+00
                  0.112009D+02           0.200944D+00
            P    4   1.00
                  0.587849D+02          -0.189674D-01
                  0.918962D+01           0.264104D+00
                  0.413895D+01           0.500000D+00
                  0.184225D+01           0.319316D+00
            P    1   1.00
                  0.713862D+00           1.0000000
            P    1   1.00
                  0.274232D+00           1.0000000
            P    1   1.00
                  0.944411D-01           1.0000000
            D    7   1.00
                  0.398470D+03           0.204066D-02
                  0.118967D+03           0.175171D-01
                  0.450197D+02           0.829708D-01
                  0.190320D+02           0.236284D+00
                  0.855686D+01           0.428468D+00
                  0.382950D+01           0.500000D+00
                  0.166291D+01           0.349360D+00
            D    1   1.00
                  0.672953D+00           1.0000000
            D    1   1.00
                  0.252000D+00           1.0000000
            F    1   1.00
                  0.530000D+00           1.0000000
            ****
            -Si     0
            S    8   1.00
                  0.996133D+05           0.235546D-03
                  0.149311D+05           0.182707D-02
                  0.339820D+04           0.951425D-02
                  0.962140D+03           0.388172D-01
                  0.313430D+03           0.127328D+00
                  0.112683D+03           0.313522D+00
                  0.433372D+02           0.500000D+00
                  0.170029D+02           0.340347D+00
            S    3   1.00
                  0.884208D+02          -0.404451D-01
                  0.266756D+02          -0.178059D+00
                  0.479640D+01           0.500000D+00
            S    2   1.00
                  0.239385D+01           0.500000D+00
                  0.108333D+01           0.338016D+00
            S    1   1.00
                  0.252420D+00           1.0000000
            S    1   1.00
                  0.891210D-01           1.0000000
            P    7   1.00
                  0.709901D+03           0.123028D-02
                  0.168426D+03           0.101366D-01
                  0.539946D+02           0.511840D-01
                  0.198646D+02           0.169967D+00
                  0.801369D+01           0.370717D+00
                  0.331870D+01           0.500000D+00
                  0.136112D+01           0.344128D+00
            P    2   1.00
                  0.622158D+01          -0.166609D-01
                  0.503049D+00           0.500000D+00
            P    1   1.00
                  0.179848D+00           1.0000000
            P    1   1.00
                  0.591912D-01           1.0000000
            D    1   1.00
                  0.168000D+01           1.0000000
            D    1   1.00
                  0.380000D+00           1.0000000
            F    1   1.00
                  0.540000D+00           1.0000000
            ****
            -P     0
            S    8   1.00
                  0.116416D+06           0.230715D-03
                  0.174500D+05           0.178960D-02
                  0.397149D+04           0.932116D-02
                  0.112447D+04           0.380591D-01
                  0.366347D+03           0.125148D+00
                  0.131757D+03           0.310022D+00
                  0.506988D+02           0.500000D+00
                  0.199436D+02           0.347528D+00
            S    3   1.00
                  0.101878D+03          -0.446755D-01
                  0.308249D+02          -0.196376D+00
                  0.573688D+01           0.500000D+00
            S    2   1.00
                  0.296868D+01           0.500000D+00
                  0.135315D+01           0.355098D+00
            S    1   1.00
                  0.332196D+00           1.0000000
            S    1   1.00
                  0.116229D+00           1.0000000
            P    7   1.00
                  0.873928D+03           0.112375D-02
                  0.207298D+03           0.933330D-02
                  0.664628D+02           0.477213D-01
                  0.245665D+02           0.160733D+00
                  0.996820D+01           0.359760D+00
                  0.416536D+01           0.500000D+00
                  0.173022D+01           0.346593D+00
            P    2   1.00
                  0.772530D+01          -0.175718D-01
                  0.657252D+00           0.500000D+00
            P    1   1.00
                  0.239903D+00           1.0000000
            P    1   1.00
                  0.800988D-01           1.0000000
            D    1   1.00
                  0.189000D+01           1.0000000
            D    1   1.00
                  0.430000D+00           1.0000000
            F    1   1.00
                  0.600000D+00           1.0000000
            ****
            
 Initial command:
 /usr/local/apps/g16_b01_avx/g16/l1.exe "/wrk/irikura/Gau-446563.inp" -scrdir="/wrk/irikura/"
 Entering Link 1 = /usr/local/apps/g16_b01_avx/g16/l1.exe PID=    446565.
  
 Copyright (c) 1988-2017, Gaussian, Inc.  All Rights Reserved.
  
 This is part of the Gaussian(R) 16 program.  It is based on
 the Gaussian(R) 09 system (copyright 2009, Gaussian, Inc.),
 the Gaussian(R) 03 system (copyright 2003, Gaussian, Inc.),
 the Gaussian(R) 98 system (copyright 1998, Gaussian, Inc.),
 the Gaussian(R) 94 system (copyright 1995, Gaussian, Inc.),
 the Gaussian 92(TM) system (copyright 1992, Gaussian, Inc.),
 the Gaussian 90(TM) system (copyright 1990, Gaussian, Inc.),
 the Gaussian 88(TM) system (copyright 1988, Gaussian, Inc.),
 the Gaussian 86(TM) system (copyright 1986, Carnegie Mellon
 University), and the Gaussian 82(TM) system (copyright 1983,
 Carnegie Mellon University). Gaussian is a federally registered
 trademark of Gaussian, Inc.
  
 This software contains proprietary and confidential information,
 including trade secrets, belonging to Gaussian, Inc.
  
 This software is provided under written license and may be
 used, copied, transmitted, or stored only in accord with that
 written license.
  
 The following legend is applicable only to US Government
 contracts under FAR:
  
                    RESTRICTED RIGHTS LEGEND
  
 Use, reproduction and disclosure by the US Government is
 subject to restrictions as set forth in subparagraphs (a)
 and (c) of the Commercial Computer Software - Restricted
 Rights clause in FAR 52.227-19.
  
 Gaussian, Inc.
 340 Quinnipiac St., Bldg. 40, Wallingford CT 06492
  
  
 ---------------------------------------------------------------
 Warning -- This program may not be used in any manner that
 competes with the business of Gaussian, Inc. or will provide
 assistance to any competitor of Gaussian, Inc.  The licensee
 of this program is prohibited from giving any competitor of
 Gaussian, Inc. access to this program.  By using this program,
 the user acknowledges that Gaussian, Inc. is engaged in the
 business of creating and licensing software in the field of
 computational chemistry and represents and warrants to the
 licensee that it is not a competitor of Gaussian, Inc. and that
 it will not use this program in any manner prohibited above.
 ---------------------------------------------------------------
  

 Cite this work as:
 Gaussian 16, Revision B.01,
 M. J. Frisch, G. W. Trucks, H. B. Schlegel, G. E. Scuseria, 
 M. A. Robb, J. R. Cheeseman, G. Scalmani, V. Barone, 
 G. A. Petersson, H. Nakatsuji, X. Li, M. Caricato, A. V. Marenich, 
 J. Bloino, B. G. Janesko, R. Gomperts, B. Mennucci, H. P. Hratchian, 
 J. V. Ortiz, A. F. Izmaylov, J. L. Sonnenberg, D. Williams-Young, 
 F. Ding, F. Lipparini, F. Egidi, J. Goings, B. Peng, A. Petrone, 
 T. Henderson, D. Ranasinghe, V. G. Zakrzewski, J. Gao, N. Rega, 
 G. Zheng, W. Liang, M. Hada, M. Ehara, K. Toyota, R. Fukuda, 
 J. Hasegawa, M. Ishida, T. Nakajima, Y. Honda, O. Kitao, H. Nakai, 
 T. Vreven, K. Throssell, J. A. Montgomery, Jr., J. E. Peralta, 
 F. Ogliaro, M. J. Bearpark, J. J. Heyd, E. N. Brothers, K. N. Kudin, 
 V. N. Staroverov, T. A. Keith, R. Kobayashi, J. Normand, 
 K. Raghavachari, A. P. Rendell, J. C. Burant, S. S. Iyengar, 
 J. Tomasi, M. Cossi, J. M. Millam, M. Klene, C. Adamo, R. Cammi, 
 J. W. Ochterski, R. L. Martin, K. Morokuma, O. Farkas, 
 J. B. Foresman, and D. J. Fox, Gaussian, Inc., Wallingford CT, 2016.
 
 ******************************************
 Gaussian 16:  ES64L-G16RevB.01 20-Dec-2017
                30-Sep-2023 
 ******************************************
 %chk=hexane.chk
 %mem=1000mw
 %nprocs=4
 Will use up to    4 processors via shared memory.
 ---------------------------------------
 # b3lyp/gen opt freq CPHF(Grid=OneStep)
 ---------------------------------------
 1/18=20,19=15,26=3,38=1/1,3;
 2/9=110,12=2,17=6,18=5,40=1/2;
 3/5=7,11=2,25=1,30=1,71=1,74=-5/1,2,3;
 4//1;
 5/5=2,38=5/2;
 6/7=2,8=2,9=2,10=2,28=1/1;
 7//1,2,3,16;
 1/18=20,19=15,26=3/3(2);
 2/9=110/2;
 99//99;
 2/9=110/2;
 3/5=7,6=1,11=2,25=1,30=1,71=1,74=-5,82=7/1,2,3;
 4/5=5,16=3,69=1/1;
 5/5=2,38=5/2;
 7//1,2,3,16;
 1/18=20,19=15,26=3/3(-5);
 2/9=110/2;
 6/7=2,8=2,9=2,10=2,19=2,28=1/1;
 99/9=1/99;
 -----------------------
 n-hexane, B3LYP/pcseg-2
 -----------------------
 Symbolic Z-matrix:
 Charge =  0 Multiplicity = 1
 C                     1.40994   2.89756   0. 
 C                    -1.40994  -2.89756   0. 
 C                     0.00555   0.76439   0. 
 C                    -0.00555  -0.76439   0. 
 C                    -1.40994  -1.36969   0. 
 C                     1.40994   1.36969   0. 
 H                    -2.4248   -3.29756   0. 
 H                     2.4248    3.29756   0. 
 H                     0.89858   3.29178   0.88056 
 H                     0.89858   3.29178  -0.88056 
 H                    -0.89858  -3.29178  -0.88056 
 H                    -0.89858  -3.29178   0.88056 
 H                     1.9583    1.00519  -0.87387 
 H                     1.9583    1.00519   0.87387 
 H                    -1.9583   -1.00519  -0.87387 
 H                    -1.9583   -1.00519   0.87387 
 H                    -0.54339   1.12987   0.87447 
 H                    -0.54339   1.12987  -0.87447 
 H                     0.54339  -1.12987  -0.87447 
 H                     0.54339  -1.12987   0.87447 
 

 GradGradGradGradGradGradGradGradGradGradGradGradGradGradGradGradGradGrad
 Berny optimization.
 Initialization pass.
                           ----------------------------
                           !    Initial Parameters    !
                           ! (Angstroms and Degrees)  !
 --------------------------                            --------------------------
 ! Name  Definition              Value          Derivative Info.                !
 --------------------------------------------------------------------------------
 ! R1    R(1,6)                  1.5279         estimate D2E/DX2                !
 ! R2    R(1,8)                  1.0908         estimate D2E/DX2                !
 ! R3    R(1,9)                  1.0919         estimate D2E/DX2                !
 ! R4    R(1,10)                 1.0919         estimate D2E/DX2                !
 ! R5    R(2,5)                  1.5279         estimate D2E/DX2                !
 ! R6    R(2,7)                  1.0908         estimate D2E/DX2                !
 ! R7    R(2,11)                 1.0919         estimate D2E/DX2                !
 ! R8    R(2,12)                 1.0919         estimate D2E/DX2                !
 ! R9    R(3,4)                  1.5288         estimate D2E/DX2                !
 ! R10   R(3,6)                  1.5293         estimate D2E/DX2                !
 ! R11   R(3,17)                 1.0953         estimate D2E/DX2                !
 ! R12   R(3,18)                 1.0953         estimate D2E/DX2                !
 ! R13   R(4,5)                  1.5293         estimate D2E/DX2                !
 ! R14   R(4,19)                 1.0953         estimate D2E/DX2                !
 ! R15   R(4,20)                 1.0953         estimate D2E/DX2                !
 ! R16   R(5,15)                 1.0942         estimate D2E/DX2                !
 ! R17   R(5,16)                 1.0942         estimate D2E/DX2                !
 ! R18   R(6,13)                 1.0942         estimate D2E/DX2                !
 ! R19   R(6,14)                 1.0942         estimate D2E/DX2                !
 ! A1    A(6,1,8)              111.5118         estimate D2E/DX2                !
 ! A2    A(6,1,9)              111.164          estimate D2E/DX2                !
 ! A3    A(6,1,10)             111.164          estimate D2E/DX2                !
 ! A4    A(8,1,9)              107.6563         estimate D2E/DX2                !
 ! A5    A(8,1,10)             107.6563         estimate D2E/DX2                !
 ! A6    A(9,1,10)             107.497          estimate D2E/DX2                !
 ! A7    A(5,2,7)              111.5118         estimate D2E/DX2                !
 ! A8    A(5,2,11)             111.164          estimate D2E/DX2                !
 ! A9    A(5,2,12)             111.164          estimate D2E/DX2                !
 ! A10   A(7,2,11)             107.6563         estimate D2E/DX2                !
 ! A11   A(7,2,12)             107.6563         estimate D2E/DX2                !
 ! A12   A(11,2,12)            107.497          estimate D2E/DX2                !
 ! A13   A(4,3,6)              113.7325         estimate D2E/DX2                !
 ! A14   A(4,3,17)             109.2713         estimate D2E/DX2                !
 ! A15   A(4,3,18)             109.2713         estimate D2E/DX2                !
 ! A16   A(6,3,17)             109.1588         estimate D2E/DX2                !
 ! A17   A(6,3,18)             109.1588         estimate D2E/DX2                !
 ! A18   A(17,3,18)            105.9564         estimate D2E/DX2                !
 ! A19   A(3,4,5)              113.7325         estimate D2E/DX2                !
 ! A20   A(3,4,19)             109.2713         estimate D2E/DX2                !
 ! A21   A(3,4,20)             109.2713         estimate D2E/DX2                !
 ! A22   A(5,4,19)             109.1588         estimate D2E/DX2                !
 ! A23   A(5,4,20)             109.1588         estimate D2E/DX2                !
 ! A24   A(19,4,20)            105.9564         estimate D2E/DX2                !
 ! A25   A(2,5,4)              113.3163         estimate D2E/DX2                !
 ! A26   A(2,5,15)             109.4586         estimate D2E/DX2                !
 ! A27   A(2,5,16)             109.4586         estimate D2E/DX2                !
 ! A28   A(4,5,15)             109.1708         estimate D2E/DX2                !
 ! A29   A(4,5,16)             109.1708         estimate D2E/DX2                !
 ! A30   A(15,5,16)            106.0047         estimate D2E/DX2                !
 ! A31   A(1,6,3)              113.3163         estimate D2E/DX2                !
 ! A32   A(1,6,13)             109.4586         estimate D2E/DX2                !
 ! A33   A(1,6,14)             109.4586         estimate D2E/DX2                !
 ! A34   A(3,6,13)             109.1708         estimate D2E/DX2                !
 ! A35   A(3,6,14)             109.1708         estimate D2E/DX2                !
 ! A36   A(13,6,14)            106.0047         estimate D2E/DX2                !
 ! D1    D(8,1,6,3)            180.0            estimate D2E/DX2                !
 ! D2    D(8,1,6,13)           -57.8913         estimate D2E/DX2                !
 ! D3    D(8,1,6,14)            57.8913         estimate D2E/DX2                !
 ! D4    D(9,1,6,3)             59.8549         estimate D2E/DX2                !
 ! D5    D(9,1,6,13)          -178.0364         estimate D2E/DX2                !
 ! D6    D(9,1,6,14)           -62.2538         estimate D2E/DX2                !
 ! D7    D(10,1,6,3)           -59.8549         estimate D2E/DX2                !
 ! D8    D(10,1,6,13)           62.2538         estimate D2E/DX2                !
 ! D9    D(10,1,6,14)          178.0364         estimate D2E/DX2                !
 ! D10   D(7,2,5,4)            180.0            estimate D2E/DX2                !
 ! D11   D(7,2,5,15)           -57.8913         estimate D2E/DX2                !
 ! D12   D(7,2,5,16)            57.8913         estimate D2E/DX2                !
 ! D13   D(11,2,5,4)           -59.8549         estimate D2E/DX2                !
 ! D14   D(11,2,5,15)           62.2538         estimate D2E/DX2                !
 ! D15   D(11,2,5,16)          178.0364         estimate D2E/DX2                !
 ! D16   D(12,2,5,4)            59.8549         estimate D2E/DX2                !
 ! D17   D(12,2,5,15)         -178.0364         estimate D2E/DX2                !
 ! D18   D(12,2,5,16)          -62.2538         estimate D2E/DX2                !
 ! D19   D(6,3,4,5)            180.0            estimate D2E/DX2                !
 ! D20   D(6,3,4,19)           -57.7578         estimate D2E/DX2                !
 ! D21   D(6,3,4,20)            57.7578         estimate D2E/DX2                !
 ! D22   D(17,3,4,5)            57.7578         estimate D2E/DX2                !
 ! D23   D(17,3,4,19)          180.0            estimate D2E/DX2                !
 ! D24   D(17,3,4,20)          -64.4845         estimate D2E/DX2                !
 ! D25   D(18,3,4,5)           -57.7578         estimate D2E/DX2                !
 ! D26   D(18,3,4,19)           64.4845         estimate D2E/DX2                !
 ! D27   D(18,3,4,20)          180.0            estimate D2E/DX2                !
 ! D28   D(4,3,6,1)            180.0            estimate D2E/DX2                !
 ! D29   D(4,3,6,13)            57.7311         estimate D2E/DX2                !
 ! D30   D(4,3,6,14)           -57.7311         estimate D2E/DX2                !
 ! D31   D(17,3,6,1)           -57.6956         estimate D2E/DX2                !
 ! D32   D(17,3,6,13)         -179.9645         estimate D2E/DX2                !
 ! D33   D(17,3,6,14)           64.5733         estimate D2E/DX2                !
 ! D34   D(18,3,6,1)            57.6956         estimate D2E/DX2                !
 ! D35   D(18,3,6,13)          -64.5733         estimate D2E/DX2                !
 ! D36   D(18,3,6,14)          179.9645         estimate D2E/DX2                !
 ! D37   D(3,4,5,2)            180.0            estimate D2E/DX2                !
 ! D38   D(3,4,5,15)            57.7311         estimate D2E/DX2                !
 ! D39   D(3,4,5,16)           -57.7311         estimate D2E/DX2                !
 ! D40   D(19,4,5,2)            57.6956         estimate D2E/DX2                !
 ! D41   D(19,4,5,15)          -64.5733         estimate D2E/DX2                !
 ! D42   D(19,4,5,16)          179.9645         estimate D2E/DX2                !
 ! D43   D(20,4,5,2)           -57.6956         estimate D2E/DX2                !
 ! D44   D(20,4,5,15)         -179.9645         estimate D2E/DX2                !
 ! D45   D(20,4,5,16)           64.5733         estimate D2E/DX2                !
 --------------------------------------------------------------------------------
 Trust Radius=3.00D-01 FncErr=1.00D-07 GrdErr=1.00D-06 EigMax=2.50D+02 EigMin=1.00D-04
 Number of steps in this run=    110 maximum allowed number of steps=    120.
 GradGradGradGradGradGradGradGradGradGradGradGradGradGradGradGradGradGrad

                          Input orientation:                          
 ---------------------------------------------------------------------
 Center     Atomic      Atomic             Coordinates (Angstroms)
 Number     Number       Type             X           Y           Z
 ---------------------------------------------------------------------
      1          6           0        1.409942    2.897556    0.000000
      2          6           0       -1.409942   -2.897556    0.000000
      3          6           0        0.005553    0.764388    0.000000
      4          6           0       -0.005553   -0.764388    0.000000
      5          6           0       -1.409942   -1.369687    0.000000
      6          6           0        1.409942    1.369687    0.000000
      7          1           0       -2.424797   -3.297559    0.000000
      8          1           0        2.424797    3.297559    0.000000
      9          1           0        0.898575    3.291781    0.880556
     10          1           0        0.898575    3.291781   -0.880556
     11          1           0       -0.898575   -3.291781   -0.880556
     12          1           0       -0.898575   -3.291781    0.880556
     13          1           0        1.958302    1.005193   -0.873866
     14          1           0        1.958302    1.005193    0.873866
     15          1           0       -1.958302   -1.005193   -0.873866
     16          1           0       -1.958302   -1.005193    0.873866
     17          1           0       -0.543391    1.129871    0.874471
     18          1           0       -0.543391    1.129871   -0.874471
     19          1           0        0.543391   -1.129871   -0.874471
     20          1           0        0.543391   -1.129871    0.874471
 ---------------------------------------------------------------------
                    Distance matrix (angstroms):
                    1          2          3          4          5
     1  C    0.000000
     2  C    6.444771   0.000000
     3  C    2.553960   3.925998   0.000000
     4  C    3.925998   2.553960   1.528816   0.000000
     5  C    5.114793   1.527869   2.560840   1.529279   0.000000
     6  C    1.527869   5.114793   1.529279   2.560840   3.931401
     7  H    7.285923   1.090841   4.733499   3.502813   2.178674
     8  H    1.090841   7.285923   3.502813   4.733499   6.040564
     9  H    1.091920   6.664272   2.821450   4.247980   5.275786
    10  H    1.091920   6.664272   2.821450   4.247980   5.275786
    11  H    6.664272   1.091920   4.247980   2.821450   2.175160
    12  H    6.664272   1.091920   4.247980   2.821450   2.175160
    13  H    2.155314   5.228782   2.152872   2.784203   4.212928
    14  H    2.155314   5.228782   2.152872   2.784203   4.212928
    15  H    5.228782   2.155314   2.784203   2.152872   1.094165
    16  H    5.228782   2.155314   2.784203   2.152872   1.094165
    17  H    2.775774   4.211387   1.095270   2.154573   2.786288
    18  H    2.775774   4.211387   1.095270   2.154573   2.786288
    19  H    4.211387   2.775774   2.154573   1.095270   2.153537
    20  H    4.211387   2.775774   2.154573   1.095270   2.153537
                    6          7          8          9         10
     6  C    0.000000
     7  H    6.040564   0.000000
     8  H    2.178674   8.186217   0.000000
     9  H    2.175160   7.432334   1.762035   0.000000
    10  H    2.175160   7.432334   1.762035   1.761112   0.000000
    11  H    5.275786   1.762035   7.432334   7.048018   6.824444
    12  H    5.275786   1.762035   7.432334   6.824444   7.048018
    13  H    1.094165   6.203940   2.497239   3.070750   2.520228
    14  H    1.094165   6.203940   2.497239   2.520228   3.070750
    15  H    4.212928   2.497239   6.203940   5.450113   5.160017
    16  H    4.212928   2.497239   6.203940   5.160017   5.450113
    17  H    2.153537   4.889430   3.778056   2.598684   3.135800
    18  H    2.153537   4.889430   3.778056   3.135800   2.598684
    19  H    2.786288   3.778056   4.889430   4.770459   4.435899
    20  H    2.786288   3.778056   4.889430   4.435899   4.770459
                   11         12         13         14         15
    11  H    0.000000
    12  H    1.761112   0.000000
    13  H    5.160017   5.450113   0.000000
    14  H    5.450113   5.160017   1.747732   0.000000
    15  H    2.520228   3.070750   4.402436   4.736666   0.000000
    16  H    3.070750   2.520228   4.736666   4.402436   1.747732
    17  H    4.770459   4.435899   3.054619   2.504798   3.101154
    18  H    4.435899   4.770459   2.504798   3.054619   2.561342
    19  H    2.598684   3.135800   2.561342   3.101154   2.504798
    20  H    3.135800   2.598684   3.101154   2.561342   3.054619
                   16         17         18         19         20
    16  H    0.000000
    17  H    2.561342   0.000000
    18  H    3.101154   1.748942   0.000000
    19  H    3.054619   3.057176   2.507495   0.000000
    20  H    2.504798   2.507495   3.057176   1.748942   0.000000
 Stoichiometry    C6H14
 Framework group  C2H[SGH(C6H2),X(H12)]
 Deg. of freedom    16
 Full point group                 C2H     NOp   4
 Largest Abelian subgroup         C2H     NOp   4
 Largest concise Abelian subgroup C2H     NOp   4
                         Standard orientation:                         
 ---------------------------------------------------------------------
 Center     Atomic      Atomic             Coordinates (Angstroms)
 Number     Number       Type             X           Y           Z
 ---------------------------------------------------------------------
      1          6           0        1.409942    2.897556    0.000000
      2          6           0       -1.409942   -2.897556    0.000000
      3          6           0        0.005553    0.764388    0.000000
      4          6           0       -0.005553   -0.764388    0.000000
      5          6           0       -1.409942   -1.369687    0.000000
      6          6           0        1.409942    1.369687    0.000000
      7          1           0       -2.424797   -3.297559    0.000000
      8          1           0        2.424797    3.297559    0.000000
      9          1           0        0.898575    3.291781    0.880556
     10          1           0        0.898575    3.291781   -0.880556
     11          1           0       -0.898575   -3.291781   -0.880556
     12          1           0       -0.898575   -3.291781    0.880556
     13          1           0        1.958302    1.005193   -0.873866
     14          1           0        1.958302    1.005193    0.873866
     15          1           0       -1.958302   -1.005193   -0.873866
     16          1           0       -1.958302   -1.005193    0.873866
     17          1           0       -0.543391    1.129871    0.874471
     18          1           0       -0.543391    1.129871   -0.874471
     19          1           0        0.543391   -1.129871   -0.874471
     20          1           0        0.543391   -1.129871    0.874471
 ---------------------------------------------------------------------
 Rotational constants (GHZ):          14.7100779           1.1311987           1.0926023
 General basis read from cards:  (5D, 7F)
 There are   128 symmetry adapted cartesian basis functions of AG  symmetry.
 There are    82 symmetry adapted cartesian basis functions of BG  symmetry.
 There are    82 symmetry adapted cartesian basis functions of AU  symmetry.
 There are   128 symmetry adapted cartesian basis functions of BU  symmetry.
 There are   112 symmetry adapted basis functions of AG  symmetry.
 There are    76 symmetry adapted basis functions of BG  symmetry.
 There are    76 symmetry adapted basis functions of AU  symmetry.
 There are   112 symmetry adapted basis functions of BU  symmetry.
   376 basis functions,   558 primitive gaussians,   420 cartesian basis functions
    25 alpha electrons       25 beta electrons
       nuclear repulsion energy       243.9590760307 Hartrees.
 NAtoms=   20 NActive=   20 NUniq=    7 SFac= 4.00D+00 NAtFMM=   60 NAOKFM=F Big=F
 Integral buffers will be    131072 words long.
 Raffenetti 2 integral format.
 Two-electron integral symmetry is turned on.
 One-electron integrals computed using PRISM.
 NBasis=   376 RedAO= T EigKep=  1.29D-04  NBF=   112    76    76   112
 NBsUse=   376 1.00D-06 EigRej= -1.00D+00 NBFU=   112    76    76   112
 ExpMin= 7.42D-02 ExpMax= 7.32D+03 ExpMxC= 2.50D+02 IAcc=3 IRadAn=         5 AccDes= 0.00D+00
 Harris functional with IExCor=  402 and IRadAn=       5 diagonalized for initial guess.
 HarFok:  IExCor=  402 AccDes= 0.00D+00 IRadAn=         5 IDoV= 1 UseB2=F ITyADJ=14
 ICtDFT=  3500011 ScaDFX=  1.000000  1.000000  1.000000  1.000000
 FoFCou: FMM=F IPFlag=           0 FMFlag=      100000 FMFlg1=           0
         NFxFlg=           0 DoJE=T BraDBF=F KetDBF=T FulRan=T
         wScrn=  0.000000 ICntrl=       500 IOpCl=  0 I1Cent=   200000004 NGrid=           0
         NMat0=    1 NMatS0=      1 NMatT0=    0 NMatD0=    1 NMtDS0=    0 NMtDT0=    0
 Petite list used in FoFCou.
 Initial guess orbital symmetries:
       Occupied  (BU) (AG) (AG) (BU) (AG) (BU) (AG) (BU) (AG) (BU)
                 (AG) (BU) (AU) (AG) (BG) (BU) (AU) (BU) (AG) (BG)
                 (BU) (AG) (AG) (AU) (BG)
       Virtual   (AG) (BU) (AU) (BU) (AG) (BU) (AG) (BG) (BU) (AG)
                 (BG) (AU) (BU) (AU) (BU) (BG) (AG) (AG) (BU) (AG)
                 (AU) (BG) (BU) (BU) (AG) (AU) (BG) (AG) (BU) (AU)
                 (AU) (AG) (BU) (BG) (BU) (AG) (AG) (BG) (BU) (AU)
                 (AG) (BU) (AG) (BG) (BU) (AU) (AG) (BU) (AG) (BG)
                 (BU) (BU) (AG) (AG) (BU) (AG) (BU) (AU) (BU) (BG)
                 (AG) (AU) (BG) (BU) (AU) (AG) (AG) (BU) (BG) (AU)
                 (BG) (AG) (AU) (AG) (BU) (BG) (AU) (BG) (BU) (AU)
                 (AG) (BG) (BU) (AU) (BU) (AG) (BG) (AG) (BG) (BU)
                 (AU) (BG) (AU) (BU) (BG) (AG) (BU) (AG) (AG) (BU)
                 (BU) (BU) (AG) (AU) (AG) (AG) (AU) (BG) (AU) (AU)
                 (BG) (BU) (BU) (AG) (AG) (BU) (BG) (AG) (BU) (AG)
                 (AU) (BU) (BG) (BU) (AG) (BU) (AU) (AG) (AU) (AG)
                 (BG) (BU) (BU) (AG) (BU) (BG) (AG) (AU) (BG) (AU)
                 (BG) (BU) (AG) (BU) (AG) (AG) (BU) (AG) (BU) (AG)
                 (AG) (BU) (AU) (AG) (BU) (BG) (BG) (AG) (BU) (AU)
                 (BG) (AU) (BU) (AG) (BU) (AG) (BU) (AG) (BG) (AU)
                 (AU) (AG) (BU) (BG) (AU) (BG) (BU) (AU) (AG) (AU)
                 (BG) (AG) (BU) (BG) (AU) (BU) (AG) (BU) (AG) (BG)
                 (AG) (BU) (BG) (AU) (AU) (BU) (BG) (AU) (BG) (BU)
                 (AG) (AU) (BG) (BU) (AG) (AU) (AU) (BG) (BG) (AU)
                 (AG) (BG) (BU) (AU) (BG) (BG) (AU) (AG) (BU) (AU)
                 (BU) (AG) (BG) (BU) (AG) (AG) (BU) (AG) (AU) (BU)
                 (BG) (AG) (BU) (AU) (BG) (BU) (AU) (AG) (AU) (AG)
                 (BU) (BG) (BU) (AG) (BG) (AG) (BU) (AG) (BU) (AU)
                 (AG) (BU) (AU) (BU) (BG) (AG) (BG) (AU) (BU) (AU)
                 (AG) (BG) (BG) (BU) (AG) (AG) (AU) (AG) (BG) (BU)
                 (AG) (BU) (BU) (AU) (AG) (AU) (BU) (BG) (BU) (BG)
                 (BU) (AU) (AG) (AG) (BU) (AG) (BG) (BU) (AG) (AU)
                 (BG) (AU) (BU) (AG) (BU) (AG) (AG) (BG) (AU) (BG)
                 (AG) (BU) (AG) (AU) (BG) (BU) (BU) (BG) (AU) (AG)
                 (BG) (AG) (AU) (BG) (AU) (BU) (BU) (AG) (BG) (AG)
                 (AU) (BU) (BG) (AG) (BU) (BG) (AG) (BU) (AG) (AU)
                 (BU) (BG) (BU) (AG) (BU) (AU) (AG) (AU) (BU) (AU)
                 (AG) (BG) (BG) (AU) (BU) (BG) (AG) (AU) (BU) (AG)
                 (BU)
 The electronic state of the initial guess is 1-AG.
 Requested convergence on RMS density matrix=1.00D-08 within 128 cycles.
 Requested convergence on MAX density matrix=1.00D-06.
 Requested convergence on             energy=1.00D-06.
 No special actions if energy rises.
 Integral accuracy reduced to 1.0D-05 until final iterations.
 Initial convergence to 1.0D-05 achieved.  Increase integral accuracy.
 SCF Done:  E(RB3LYP) =  -237.182582388     A.U. after   11 cycles
            NFock= 11  Conv=0.69D-08     -V/T= 2.0048

 **********************************************************************

            Population analysis using the SCF Density.

 **********************************************************************

 Orbital symmetries:
       Occupied  (AG) (BU) (AG) (BU) (AG) (BU) (AG) (BU) (AG) (BU)
                 (AG) (BU) (AU) (BG) (AG) (BU) (AU) (BU) (AG) (BG)
                 (BU) (AU) (AG) (BG) (AG)
       Virtual   (AG) (BU) (BU) (AU) (AG) (AG) (BG) (BU) (BG) (BU)
                 (AU) (AG) (AU) (AG) (BG) (BU) (AG) (BU) (AG) (BU)
                 (BG) (AU) (BU) (BG) (AU) (AG) (BU) (AG) (AU) (BU)
                 (AU) (AG) (BU) (AG) (BG) (BU) (BG) (AG) (BU) (AU)
                 (AG) (BG) (BU) (AU) (AG) (BU) (AG) (BU) (BG) (AG)
                 (BU) (BU) (AG) (AG) (BU) (AG) (BU) (AU) (BU) (BG)
                 (BG) (AU) (AG) (AU) (BU) (AG) (BG) (AG) (BU) (AU)
                 (BG) (AU) (AG) (BU) (AG) (BG) (AU) (BG) (AU) (BG)
                 (AG) (BU) (BU) (AU) (BU) (BG) (BG) (AG) (AG) (AU)
                 (BU) (BG) (AU) (BU) (BG) (AG) (AG) (BU) (AG) (BU)
                 (BU) (BU) (AG) (AU) (AG) (AU) (AG) (BG) (AU) (BG)
                 (AU) (BU) (BU) (AG) (BG) (AG) (BU) (AG) (BU) (AG)
                 (AU) (BU) (BG) (BU) (AG) (BU) (AU) (AG) (AU) (AG)
                 (BG) (BU) (BU) (AG) (BU) (AG) (BG) (AU) (BG) (BG)
                 (AU) (AG) (BU) (AG) (BU) (BU) (AG) (AG) (BU) (AG)
                 (AG) (BU) (AG) (AU) (BU) (BG) (BG) (AG) (BU) (AU)
                 (BG) (AU) (BU) (AG) (BU) (AG) (BU) (AG) (BG) (AU)
                 (AU) (AG) (BU) (BG) (AU) (BG) (AU) (BU) (AG) (AU)
                 (BG) (AG) (BU) (BG) (AU) (BU) (AG) (BU) (AG) (BG)
                 (AG) (BU) (BG) (AU) (AU) (BU) (BG) (AU) (BG) (BU)
                 (AG) (AU) (BG) (BU) (AU) (AU) (BG) (AG) (BG) (AU)
                 (AG) (BG) (AU) (BU) (BG) (BG) (AG) (AU) (BU) (AU)
                 (BU) (AG) (BG) (BU) (AG) (AG) (BU) (AU) (AG) (BU)
                 (BG) (AG) (AU) (BG) (BU) (BU) (AU) (AG) (AU) (AG)
                 (BG) (BU) (BU) (AG) (AG) (BU) (BG) (AG) (BU) (AU)
                 (AG) (BU) (BG) (BU) (AU) (AG) (BG) (AU) (BU) (BG)
                 (AU) (AG) (BG) (BU) (AG) (AU) (AG) (AG) (BG) (BU)
                 (BU) (AG) (BU) (AU) (AU) (AG) (BG) (BU) (BU) (BG)
                 (BU) (AU) (AG) (BU) (AG) (BG) (AG) (AU) (BU) (BG)
                 (AG) (AU) (BU) (AG) (BU) (AG) (AG) (BG) (AU) (BG)
                 (AG) (AG) (BU) (AU) (BU) (BG) (BG) (BU) (AG) (AU)
                 (BG) (AG) (AU) (BG) (BU) (AU) (AG) (BU) (AG) (BG)
                 (AU) (BU) (BG) (AG) (BU) (AG) (BG) (AU) (BU) (AG)
                 (BU) (BG) (BU) (AG) (BU) (AU) (AG) (AU) (BU) (AU)
                 (AG) (BG) (BG) (AU) (BU) (BG) (AG) (AU) (BU) (AG)
                 (BU)
 The electronic state is 1-AG.
 Alpha  occ. eigenvalues --  -10.16289 -10.16288 -10.16086 -10.16063 -10.15647
 Alpha  occ. eigenvalues --  -10.15647  -0.80655  -0.76849  -0.70971  -0.63976
 Alpha  occ. eigenvalues --   -0.58328  -0.57616  -0.48096  -0.44765  -0.43737
 Alpha  occ. eigenvalues --   -0.42328  -0.40146  -0.38389  -0.38070  -0.35691
 Alpha  occ. eigenvalues --   -0.34348  -0.32925  -0.32735  -0.32206  -0.31314
 Alpha virt. eigenvalues --    0.01529   0.02505   0.03689   0.03900   0.04813
 Alpha virt. eigenvalues --    0.06760   0.07259   0.08153   0.08927   0.09892
 Alpha virt. eigenvalues --    0.10441   0.11015   0.12294   0.13036   0.13713
 Alpha virt. eigenvalues --    0.14562   0.15460   0.17431   0.18304   0.19651
 Alpha virt. eigenvalues --    0.20279   0.20786   0.24136   0.25278   0.25704
 Alpha virt. eigenvalues --    0.26773   0.27357   0.27871   0.28889   0.29110
 Alpha virt. eigenvalues --    0.31493   0.32855   0.32960   0.34004   0.34214
 Alpha virt. eigenvalues --    0.34680   0.35255   0.37000   0.37550   0.37634
 Alpha virt. eigenvalues --    0.37937   0.38806   0.38860   0.39244   0.39275
 Alpha virt. eigenvalues --    0.40900   0.41310   0.43985   0.44139   0.45928
 Alpha virt. eigenvalues --    0.48721   0.52538   0.53102   0.55958   0.56988
 Alpha virt. eigenvalues --    0.59415   0.63806   0.71515   0.72018   0.75116
 Alpha virt. eigenvalues --    0.77703   0.77928   0.78188   0.78306   0.80119
 Alpha virt. eigenvalues --    0.83194   0.86667   0.86875   0.88126   0.90415
 Alpha virt. eigenvalues --    0.96105   0.96762   0.97577   1.00064   1.00122
 Alpha virt. eigenvalues --    1.00155   1.01453   1.01770   1.02568   1.04025
 Alpha virt. eigenvalues --    1.04442   1.05201   1.07587   1.08193   1.09533
 Alpha virt. eigenvalues --    1.10887   1.12509   1.12661   1.13023   1.14292
 Alpha virt. eigenvalues --    1.15943   1.16049   1.16337   1.17958   1.18035
 Alpha virt. eigenvalues --    1.22544   1.23212   1.25587   1.27327   1.28586
 Alpha virt. eigenvalues --    1.30010   1.31564   1.31997   1.32876   1.34143
 Alpha virt. eigenvalues --    1.38303   1.38577   1.39366   1.39863   1.40703
 Alpha virt. eigenvalues --    1.41313   1.42119   1.49285   1.50043   1.57473
 Alpha virt. eigenvalues --    1.57813   1.58453   1.64098   1.66119   1.66374
 Alpha virt. eigenvalues --    1.66863   1.70370   1.71280   1.74551   1.75125
 Alpha virt. eigenvalues --    1.76408   1.76474   1.81625   1.81860   1.82488
 Alpha virt. eigenvalues --    1.83535   1.84493   1.85918   1.91401   1.94322
 Alpha virt. eigenvalues --    1.95300   1.95547   1.97469   1.99054   2.00341
 Alpha virt. eigenvalues --    2.01341   2.06445   2.06812   2.09798   2.10423
 Alpha virt. eigenvalues --    2.13085   2.16615   2.27184   2.28857   2.34909
 Alpha virt. eigenvalues --    2.37636   2.38818   2.42884   2.43435   2.46885
 Alpha virt. eigenvalues --    2.48948   2.50124   2.57222   2.60943   2.63054
 Alpha virt. eigenvalues --    2.75545   2.83218   2.96555   2.98292   3.01118
 Alpha virt. eigenvalues --    3.07275   3.07395   3.11789   3.17447   3.17454
 Alpha virt. eigenvalues --    3.19354   3.22469   3.23335   3.24992   3.27210
 Alpha virt. eigenvalues --    3.29705   3.29817   3.30533   3.33599   3.35014
 Alpha virt. eigenvalues --    3.37139   3.40396   3.40417   3.42056   3.47061
 Alpha virt. eigenvalues --    3.47071   3.52199   3.52263   3.53546   3.54348
 Alpha virt. eigenvalues --    3.56100   3.57078   3.61380   3.62709   3.66003
 Alpha virt. eigenvalues --    3.66704   3.68131   3.70618   3.70829   3.75780
 Alpha virt. eigenvalues --    3.79571   3.80213   3.81712   3.85000   3.86277
 Alpha virt. eigenvalues --    3.86390   3.86923   3.88069   3.88343   3.92670
 Alpha virt. eigenvalues --    3.94423   3.98234   3.98718   3.99281   3.99487
 Alpha virt. eigenvalues --    4.00508   4.01471   4.02564   4.03441   4.06386
 Alpha virt. eigenvalues --    4.10659   4.12918   4.20360   4.20820   4.22729
 Alpha virt. eigenvalues --    4.24340   4.29794   4.30898   4.31127   4.33381
 Alpha virt. eigenvalues --    4.34051   4.35906   4.38405   4.39199   4.39430
 Alpha virt. eigenvalues --    4.41402   4.42487   4.43027   4.46063   4.46164
 Alpha virt. eigenvalues --    4.46593   4.46665   4.50085   4.50533   4.52510
 Alpha virt. eigenvalues --    4.52964   4.53017   4.53831   4.57618   4.59068
 Alpha virt. eigenvalues --    4.60075   4.60749   4.61706   4.62060   4.62672
 Alpha virt. eigenvalues --    4.63033   4.64919   4.65923   4.67563   4.67941
 Alpha virt. eigenvalues --    4.69110   4.69748   4.69782   4.72117   4.72194
 Alpha virt. eigenvalues --    4.73366   4.74125   4.78694   4.79268   4.81455
 Alpha virt. eigenvalues --    4.83644   4.84461   4.86294   4.87365   4.92416
 Alpha virt. eigenvalues --    4.92933   4.93171   4.94404   4.96677   4.96809
 Alpha virt. eigenvalues --    5.01743   5.04233   5.05471   5.08140   5.08478
 Alpha virt. eigenvalues --    5.13709   5.15018   5.16427   5.17336   5.18101
 Alpha virt. eigenvalues --    5.18887   5.19726   5.28182   5.33403   5.36430
 Alpha virt. eigenvalues --    5.39552   5.42674   5.43131   5.44393   5.46346
 Alpha virt. eigenvalues --    5.48647   5.49407   5.49558   5.49727   5.52339
 Alpha virt. eigenvalues --    5.52532   5.53866   5.55230   5.58187   5.58982
 Alpha virt. eigenvalues --    5.61583   5.63631   5.69046   5.69489   5.70204
 Alpha virt. eigenvalues --    5.70333   5.74783   5.74890   5.76534   5.77565
 Alpha virt. eigenvalues --    5.81271   5.83523   5.85859   5.88086   5.88526
 Alpha virt. eigenvalues --    5.92694   5.92724   5.93490   5.94179   5.95473
 Alpha virt. eigenvalues --    5.95698   5.99635   6.03443   6.04071   6.06398
 Alpha virt. eigenvalues --    6.09009   6.09737   6.11757   6.14066   6.14572
 Alpha virt. eigenvalues --    6.16545   6.20456   6.22800   6.24463   6.24921
 Alpha virt. eigenvalues --    6.26351   6.26525   6.27820   6.29225   6.93907
 Alpha virt. eigenvalues --    7.78629
          Condensed to atoms (all electrons):
               1          2          3          4          5          6
     1  C    4.607491   0.000103  -0.052712   0.014662  -0.001373   0.309871
     2  C    0.000103   4.607491   0.014662  -0.052712   0.309871  -0.001373
     3  C   -0.052712   0.014662   4.831933   0.287122  -0.042061   0.301034
     4  C    0.014662  -0.052712   0.287122   4.831933   0.301034  -0.042061
     5  C   -0.001373   0.309871  -0.042061   0.301034   4.750919   0.014950
     6  C    0.309871  -0.001373   0.301034  -0.042061   0.014950   4.750919
     7  H   -0.000005   0.423336  -0.000901   0.014065  -0.036911   0.000094
     8  H    0.423336  -0.000005   0.014065  -0.000901   0.000094  -0.036911
     9  H    0.428157   0.000001  -0.009426  -0.000472  -0.000117  -0.038390
    10  H    0.428157   0.000001  -0.009426  -0.000472  -0.000117  -0.038390
    11  H    0.000001   0.428157  -0.000472  -0.009426  -0.038390  -0.000117
    12  H    0.000001   0.428157  -0.000472  -0.009426  -0.038390  -0.000117
    13  H   -0.038255  -0.000098  -0.047229  -0.007098  -0.000422   0.440648
    14  H   -0.038255  -0.000098  -0.047229  -0.007098  -0.000422   0.440648
    15  H   -0.000098  -0.038255  -0.007098  -0.047229   0.440648  -0.000422
    16  H   -0.000098  -0.038255  -0.007098  -0.047229   0.440648  -0.000422
    17  H   -0.003728  -0.000246   0.443428  -0.046829  -0.005011  -0.042903
    18  H   -0.003728  -0.000246   0.443428  -0.046829  -0.005011  -0.042903
    19  H   -0.000246  -0.003728  -0.046829   0.443428  -0.042903  -0.005011
    20  H   -0.000246  -0.003728  -0.046829   0.443428  -0.042903  -0.005011
               7          8          9         10         11         12
     1  C   -0.000005   0.423336   0.428157   0.428157   0.000001   0.000001
     2  C    0.423336  -0.000005   0.000001   0.000001   0.428157   0.428157
     3  C   -0.000901   0.014065  -0.009426  -0.009426  -0.000472  -0.000472
     4  C    0.014065  -0.000901  -0.000472  -0.000472  -0.009426  -0.009426
     5  C   -0.036911   0.000094  -0.000117  -0.000117  -0.038390  -0.038390
     6  C    0.000094  -0.036911  -0.038390  -0.038390  -0.000117  -0.000117
     7  H    0.633048   0.000000  -0.000000  -0.000000  -0.025629  -0.025629
     8  H    0.000000   0.633048  -0.025629  -0.025629  -0.000000  -0.000000
     9  H   -0.000000  -0.025629   0.654880  -0.032981  -0.000000   0.000000
    10  H   -0.000000  -0.025629  -0.032981   0.654880   0.000000  -0.000000
    11  H   -0.025629  -0.000000  -0.000000   0.000000   0.654880  -0.032981
    12  H   -0.025629  -0.000000   0.000000  -0.000000  -0.032981   0.654880
    13  H    0.000000  -0.005718   0.011255  -0.009402  -0.000039   0.000020
    14  H    0.000000  -0.005718  -0.009402   0.011255   0.000020  -0.000039
    15  H   -0.005718   0.000000   0.000020  -0.000039  -0.009402   0.011255
    16  H   -0.005718   0.000000  -0.000039   0.000020   0.011255  -0.009402
    17  H   -0.000017   0.000030   0.005428  -0.001362  -0.000093   0.000091
    18  H   -0.000017   0.000030  -0.001362   0.005428   0.000091  -0.000093
    19  H    0.000030  -0.000017  -0.000093   0.000091   0.005428  -0.001362
    20  H    0.000030  -0.000017   0.000091  -0.000093  -0.001362   0.005428
              13         14         15         16         17         18
     1  C   -0.038255  -0.038255  -0.000098  -0.000098  -0.003728  -0.003728
     2  C   -0.000098  -0.000098  -0.038255  -0.038255  -0.000246  -0.000246
     3  C   -0.047229  -0.047229  -0.007098  -0.007098   0.443428   0.443428
     4  C   -0.007098  -0.007098  -0.047229  -0.047229  -0.046829  -0.046829
     5  C   -0.000422  -0.000422   0.440648   0.440648  -0.005011  -0.005011
     6  C    0.440648   0.440648  -0.000422  -0.000422  -0.042903  -0.042903
     7  H    0.000000   0.000000  -0.005718  -0.005718  -0.000017  -0.000017
     8  H   -0.005718  -0.005718   0.000000   0.000000   0.000030   0.000030
     9  H    0.011255  -0.009402   0.000020  -0.000039   0.005428  -0.001362
    10  H   -0.009402   0.011255  -0.000039   0.000020  -0.001362   0.005428
    11  H   -0.000039   0.000020  -0.009402   0.011255  -0.000093   0.000091
    12  H    0.000020  -0.000039   0.011255  -0.009402   0.000091  -0.000093
    13  H    0.679658  -0.037976   0.000138  -0.000100   0.010937  -0.009786
    14  H   -0.037976   0.679658  -0.000100   0.000138  -0.009786   0.010937
    15  H    0.000138  -0.000100   0.679658  -0.037976  -0.000981   0.004653
    16  H   -0.000100   0.000138  -0.037976   0.679658   0.004653  -0.000981
    17  H    0.010937  -0.009786  -0.000981   0.004653   0.679395  -0.038919
    18  H   -0.009786   0.010937   0.004653  -0.000981  -0.038919   0.679395
    19  H    0.004653  -0.000981  -0.009786   0.010937   0.010865  -0.009640
    20  H   -0.000981   0.004653   0.010937  -0.009786  -0.009640   0.010865
              19         20
     1  C   -0.000246  -0.000246
     2  C   -0.003728  -0.003728
     3  C   -0.046829  -0.046829
     4  C    0.443428   0.443428
     5  C   -0.042903  -0.042903
     6  C   -0.005011  -0.005011
     7  H    0.000030   0.000030
     8  H   -0.000017  -0.000017
     9  H   -0.000093   0.000091
    10  H    0.000091  -0.000093
    11  H    0.005428  -0.001362
    12  H   -0.001362   0.005428
    13  H    0.004653  -0.000981
    14  H   -0.000981   0.004653
    15  H   -0.009786   0.010937
    16  H    0.010937  -0.009786
    17  H    0.010865  -0.009640
    18  H   -0.009640   0.010865
    19  H    0.679395  -0.038919
    20  H   -0.038919   0.679395
 Mulliken charges:
               1
     1  C   -0.073035
     2  C   -0.073035
     3  C   -0.017892
     4  C   -0.017892
     5  C   -0.004134
     6  C   -0.004134
     7  H    0.029942
     8  H    0.029942
     9  H    0.018079
    10  H    0.018079
    11  H    0.018079
    12  H    0.018079
    13  H    0.009794
    14  H    0.009794
    15  H    0.009794
    16  H    0.009794
    17  H    0.004687
    18  H    0.004687
    19  H    0.004687
    20  H    0.004687
 Sum of Mulliken charges =  -0.00000
 Mulliken charges with hydrogens summed into heavy atoms:
               1
     1  C   -0.006936
     2  C   -0.006936
     3  C   -0.008518
     4  C   -0.008518
     5  C    0.015453
     6  C    0.015453
 Electronic spatial extent (au):  <R**2>=           1141.2111
 Charge=             -0.0000 electrons
 Dipole moment (field-independent basis, Debye):
    X=              0.0000    Y=              0.0000    Z=             -0.0000  Tot=              0.0000
 Quadrupole moment (field-independent basis, Debye-Ang):
   XX=            -42.5619   YY=            -43.8541   ZZ=            -41.4592
   XY=             -0.0302   XZ=              0.0000   YZ=             -0.0000
 Traceless Quadrupole moment (field-independent basis, Debye-Ang):
   XX=              0.0632   YY=             -1.2290   ZZ=              1.1659
   XY=             -0.0302   XZ=              0.0000   YZ=             -0.0000
 Octapole moment (field-independent basis, Debye-Ang**2):
  XXX=              0.0000  YYY=              0.0000  ZZZ=              0.0000  XYY=              0.0000
  XXY=              0.0000  XXZ=              0.0000  XZZ=             -0.0000  YZZ=             -0.0000
  YYZ=             -0.0000  XYZ=             -0.0000
 Hexadecapole moment (field-independent basis, Debye-Ang**3):
 XXXX=           -445.4170 YYYY=          -1130.5493 ZZZZ=            -89.6448 XXXY=           -261.2719
 XXXZ=              0.0000 YYYX=           -276.6098 YYYZ=              0.0000 ZZZX=             -0.0000
 ZZZY=             -0.0000 XXYY=           -256.0303 XXZZ=            -89.4448 YYZZ=           -193.6743
 XXYZ=             -0.0000 YYXZ=              0.0000 ZZXY=            -91.6484
 N-N= 2.439590760307D+02 E-N=-1.036294408122D+03  KE= 2.360478051857D+02
 Symmetry AG   KE= 1.135808446720D+02
 Symmetry BG   KE= 6.066824254812D+00
 Symmetry AU   KE= 5.885768256030D+00
 Symmetry BU   KE= 1.105143680028D+02
 Calling FoFJK, ICntrl=      2127 FMM=F ISym2X=1 I1Cent= 0 IOpClX= 0 NMat=1 NMatS=1 NMatT=0.
 ***** Axes restored to original set *****
 -------------------------------------------------------------------
 Center     Atomic                   Forces (Hartrees/Bohr)
 Number     Number              X              Y              Z
 -------------------------------------------------------------------
      1        6          -0.000022209   -0.000039682   -0.000000000
      2        6           0.000022209    0.000039682    0.000000000
      3        6          -0.000009055   -0.000026707   -0.000000000
      4        6           0.000009055    0.000026707    0.000000000
      5        6           0.000008955   -0.000015128   -0.000000000
      6        6          -0.000008955    0.000015128    0.000000000
      7        1          -0.000014765   -0.000000303   -0.000000000
      8        1           0.000014765    0.000000303   -0.000000000
      9        1           0.000001577    0.000005601    0.000002452
     10        1           0.000001577    0.000005601   -0.000002452
     11        1          -0.000001577   -0.000005601   -0.000002452
     12        1          -0.000001577   -0.000005601    0.000002452
     13        1           0.000003071    0.000001060   -0.000004245
     14        1           0.000003071    0.000001060    0.000004245
     15        1          -0.000003071   -0.000001060   -0.000004245
     16        1          -0.000003071   -0.000001060    0.000004245
     17        1          -0.000001171    0.000006966    0.000003409
     18        1          -0.000001171    0.000006966   -0.000003409
     19        1           0.000001171   -0.000006966   -0.000003409
     20        1           0.000001171   -0.000006966    0.000003409
 -------------------------------------------------------------------
 Cartesian Forces:  Max     0.000039682 RMS     0.000011031

 GradGradGradGradGradGradGradGradGradGradGradGradGradGradGradGradGradGrad
 Berny optimization.
 FormGI is forming the generalized inverse of G from B-inverse, IUseBI=4.
 Internal  Forces:  Max     0.000027640 RMS     0.000006688
 Search for a local minimum.
 Step number   1 out of a maximum of  110
 All quantities printed in internal units (Hartrees-Bohrs-Radians)
 Mixed Optimization -- En-DIIS/RFO-DIIS
 Second derivative matrix not updated -- first step.
 ITU=  0
     Eigenvalues ---    0.00379   0.00379   0.00385   0.00397   0.00397
     Eigenvalues ---    0.03427   0.03427   0.03469   0.03469   0.04810
     Eigenvalues ---    0.04810   0.04823   0.04823   0.05469   0.05469
     Eigenvalues ---    0.05517   0.05517   0.08477   0.08477   0.08543
     Eigenvalues ---    0.08543   0.12305   0.12305   0.12354   0.12354
     Eigenvalues ---    0.16000   0.16000   0.16000   0.16000   0.16000
     Eigenvalues ---    0.16000   0.21901   0.21901   0.21909   0.21909
     Eigenvalues ---    0.29490   0.29490   0.29533   0.29621   0.29621
     Eigenvalues ---    0.34211   0.34211   0.34211   0.34211   0.34336
     Eigenvalues ---    0.34336   0.34336   0.34336   0.34592   0.34592
     Eigenvalues ---    0.34592   0.34592   0.34716   0.34716
 RFO step:  Lambda=-2.01925764D-08 EMin= 3.78637804D-03
 Linear search not attempted -- first point.
 Iteration  1 RMS(Cart)=  0.00006767 RMS(Int)=  0.00000000
 Iteration  2 RMS(Cart)=  0.00000000 RMS(Int)=  0.00000000
 ClnCor:  largest displacement from symmetrization is 3.08D-11 for atom    19.
 Variable       Old X    -DE/DX   Delta X   Delta X   Delta X     New X
                                 (Linear)    (Quad)   (Total)
    R1        2.88725  -0.00003   0.00000  -0.00009  -0.00009   2.88716
    R2        2.06139   0.00001   0.00000   0.00004   0.00004   2.06143
    R3        2.06343   0.00000   0.00000   0.00001   0.00001   2.06344
    R4        2.06343   0.00000   0.00000   0.00001   0.00001   2.06344
    R5        2.88725  -0.00003   0.00000  -0.00009  -0.00009   2.88716
    R6        2.06139   0.00001   0.00000   0.00004   0.00004   2.06143
    R7        2.06343   0.00000   0.00000   0.00001   0.00001   2.06344
    R8        2.06343   0.00000   0.00000   0.00001   0.00001   2.06344
    R9        2.88904  -0.00002   0.00000  -0.00008  -0.00008   2.88897
   R10        2.88992  -0.00001   0.00000  -0.00004  -0.00004   2.88988
   R11        2.06976   0.00001   0.00000   0.00002   0.00002   2.06978
   R12        2.06976   0.00001   0.00000   0.00002   0.00002   2.06978
   R13        2.88992  -0.00001   0.00000  -0.00004  -0.00004   2.88988
   R14        2.06976   0.00001   0.00000   0.00002   0.00002   2.06978
   R15        2.06976   0.00001   0.00000   0.00002   0.00002   2.06978
   R16        2.06767   0.00000   0.00000   0.00001   0.00001   2.06768
   R17        2.06767   0.00000   0.00000   0.00001   0.00001   2.06768
   R18        2.06767   0.00000   0.00000   0.00001   0.00001   2.06768
   R19        2.06767   0.00000   0.00000   0.00001   0.00001   2.06768
    A1        1.94625  -0.00001   0.00000  -0.00008  -0.00008   1.94616
    A2        1.94018   0.00001   0.00000   0.00006   0.00006   1.94023
    A3        1.94018   0.00001   0.00000   0.00006   0.00006   1.94023
    A4        1.87896  -0.00000   0.00000  -0.00002  -0.00002   1.87894
    A5        1.87896  -0.00000   0.00000  -0.00002  -0.00002   1.87894
    A6        1.87618  -0.00000   0.00000   0.00001   0.00001   1.87619
    A7        1.94625  -0.00001   0.00000  -0.00008  -0.00008   1.94616
    A8        1.94018   0.00001   0.00000   0.00006   0.00006   1.94023
    A9        1.94018   0.00001   0.00000   0.00006   0.00006   1.94023
   A10        1.87896  -0.00000   0.00000  -0.00002  -0.00002   1.87894
   A11        1.87896  -0.00000   0.00000  -0.00002  -0.00002   1.87894
   A12        1.87618  -0.00000   0.00000   0.00001   0.00001   1.87619
   A13        1.98501  -0.00002   0.00000  -0.00008  -0.00008   1.98493
   A14        1.90714   0.00001   0.00000   0.00006   0.00006   1.90720
   A15        1.90714   0.00001   0.00000   0.00006   0.00006   1.90720
   A16        1.90518   0.00000   0.00000  -0.00001  -0.00001   1.90517
   A17        1.90518   0.00000   0.00000  -0.00001  -0.00001   1.90517
   A18        1.84929  -0.00000   0.00000  -0.00001  -0.00001   1.84928
   A19        1.98501  -0.00002   0.00000  -0.00008  -0.00008   1.98493
   A20        1.90714   0.00001   0.00000   0.00006   0.00006   1.90720
   A21        1.90714   0.00001   0.00000   0.00006   0.00006   1.90720
   A22        1.90518   0.00000   0.00000  -0.00001  -0.00001   1.90517
   A23        1.90518   0.00000   0.00000  -0.00001  -0.00001   1.90517
   A24        1.84929  -0.00000   0.00000  -0.00001  -0.00001   1.84928
   A25        1.97774   0.00000   0.00000   0.00001   0.00001   1.97775
   A26        1.91041  -0.00000   0.00000  -0.00002  -0.00002   1.91039
   A27        1.91041  -0.00000   0.00000  -0.00002  -0.00002   1.91039
   A28        1.90539   0.00000   0.00000   0.00001   0.00001   1.90540
   A29        1.90539   0.00000   0.00000   0.00001   0.00001   1.90540
   A30        1.85013   0.00000   0.00000   0.00001   0.00001   1.85014
   A31        1.97774   0.00000   0.00000   0.00001   0.00001   1.97775
   A32        1.91041  -0.00000   0.00000  -0.00002  -0.00002   1.91039
   A33        1.91041  -0.00000   0.00000  -0.00002  -0.00002   1.91039
   A34        1.90539   0.00000   0.00000   0.00001   0.00001   1.90540
   A35        1.90539   0.00000   0.00000   0.00001   0.00001   1.90540
   A36        1.85013   0.00000   0.00000   0.00001   0.00001   1.85014
    D1        3.14159  -0.00000   0.00000  -0.00000   0.00000   3.14159
    D2       -1.01039   0.00000   0.00000   0.00001   0.00001  -1.01039
    D3        1.01039  -0.00000   0.00000  -0.00001  -0.00001   1.01039
    D4        1.04467   0.00000   0.00000   0.00004   0.00004   1.04471
    D5       -3.10732   0.00000   0.00000   0.00005   0.00005  -3.10727
    D6       -1.08653   0.00000   0.00000   0.00004   0.00004  -1.08650
    D7       -1.04467  -0.00000   0.00000  -0.00004  -0.00004  -1.04471
    D8        1.08653  -0.00000   0.00000  -0.00004  -0.00004   1.08650
    D9        3.10732  -0.00000   0.00000  -0.00005  -0.00005   3.10727
   D10        3.14159  -0.00000   0.00000  -0.00000   0.00000   3.14159
   D11       -1.01039   0.00000   0.00000   0.00001   0.00001  -1.01039
   D12        1.01039  -0.00000   0.00000  -0.00001  -0.00001   1.01039
   D13       -1.04467  -0.00000   0.00000  -0.00004  -0.00004  -1.04471
   D14        1.08653  -0.00000   0.00000  -0.00004  -0.00004   1.08650
   D15        3.10732  -0.00000   0.00000  -0.00005  -0.00005   3.10727
   D16        1.04467   0.00000   0.00000   0.00004   0.00004   1.04471
   D17       -3.10732   0.00000   0.00000   0.00005   0.00005  -3.10727
   D18       -1.08653   0.00000   0.00000   0.00004   0.00004  -1.08650
   D19        3.14159  -0.00000   0.00000  -0.00000   0.00000   3.14159
   D20       -1.00806  -0.00000   0.00000  -0.00003  -0.00003  -1.00809
   D21        1.00806   0.00000   0.00000   0.00003   0.00003   1.00809
   D22        1.00806   0.00000   0.00000   0.00003   0.00003   1.00809
   D23        3.14159   0.00000   0.00000  -0.00000   0.00000   3.14159
   D24       -1.12547   0.00000   0.00000   0.00006   0.00006  -1.12541
   D25       -1.00806  -0.00000   0.00000  -0.00003  -0.00003  -1.00809
   D26        1.12547  -0.00000   0.00000  -0.00006  -0.00006   1.12541
   D27        3.14159  -0.00000   0.00000  -0.00000   0.00000   3.14159
   D28        3.14159   0.00000   0.00000   0.00000   0.00000   3.14159
   D29        1.00760   0.00000   0.00000   0.00001   0.00001   1.00761
   D30       -1.00760  -0.00000   0.00000  -0.00001  -0.00001  -1.00761
   D31       -1.00698   0.00000   0.00000   0.00001   0.00001  -1.00697
   D32       -3.14097   0.00000   0.00000   0.00002   0.00002  -3.14095
   D33        1.12702  -0.00000   0.00000  -0.00000  -0.00000   1.12701
   D34        1.00698  -0.00000   0.00000  -0.00001  -0.00001   1.00697
   D35       -1.12702   0.00000   0.00000   0.00000   0.00000  -1.12701
   D36        3.14097  -0.00000   0.00000  -0.00002  -0.00002   3.14095
   D37        3.14159   0.00000   0.00000   0.00000   0.00000   3.14159
   D38        1.00760   0.00000   0.00000   0.00001   0.00001   1.00761
   D39       -1.00760  -0.00000   0.00000  -0.00001  -0.00001  -1.00761
   D40        1.00698  -0.00000   0.00000  -0.00001  -0.00001   1.00697
   D41       -1.12702   0.00000   0.00000   0.00000   0.00000  -1.12701
   D42        3.14097  -0.00000   0.00000  -0.00002  -0.00002   3.14095
   D43       -1.00698   0.00000   0.00000   0.00001   0.00001  -1.00697
   D44       -3.14097   0.00000   0.00000   0.00002   0.00002  -3.14095
   D45        1.12702  -0.00000   0.00000  -0.00000  -0.00000   1.12701
         Item               Value     Threshold  Converged?
 Maximum Force            0.000028     0.000450     YES
 RMS     Force            0.000007     0.000300     YES
 Maximum Displacement     0.000317     0.001800     YES
 RMS     Displacement     0.000068     0.001200     YES
 Predicted change in Energy=-1.009649D-08
 Optimization completed.
    -- Stationary point found.
                           ----------------------------
                           !   Optimized Parameters   !
                           ! (Angstroms and Degrees)  !
 --------------------------                            --------------------------
 ! Name  Definition              Value          Derivative Info.                !
 --------------------------------------------------------------------------------
 ! R1    R(1,6)                  1.5279         -DE/DX =    0.0                 !
 ! R2    R(1,8)                  1.0908         -DE/DX =    0.0                 !
 ! R3    R(1,9)                  1.0919         -DE/DX =    0.0                 !
 ! R4    R(1,10)                 1.0919         -DE/DX =    0.0                 !
 ! R5    R(2,5)                  1.5279         -DE/DX =    0.0                 !
 ! R6    R(2,7)                  1.0908         -DE/DX =    0.0                 !
 ! R7    R(2,11)                 1.0919         -DE/DX =    0.0                 !
 ! R8    R(2,12)                 1.0919         -DE/DX =    0.0                 !
 ! R9    R(3,4)                  1.5288         -DE/DX =    0.0                 !
 ! R10   R(3,6)                  1.5293         -DE/DX =    0.0                 !
 ! R11   R(3,17)                 1.0953         -DE/DX =    0.0                 !
 ! R12   R(3,18)                 1.0953         -DE/DX =    0.0                 !
 ! R13   R(4,5)                  1.5293         -DE/DX =    0.0                 !
 ! R14   R(4,19)                 1.0953         -DE/DX =    0.0                 !
 ! R15   R(4,20)                 1.0953         -DE/DX =    0.0                 !
 ! R16   R(5,15)                 1.0942         -DE/DX =    0.0                 !
 ! R17   R(5,16)                 1.0942         -DE/DX =    0.0                 !
 ! R18   R(6,13)                 1.0942         -DE/DX =    0.0                 !
 ! R19   R(6,14)                 1.0942         -DE/DX =    0.0                 !
 ! A1    A(6,1,8)              111.5118         -DE/DX =    0.0                 !
 ! A2    A(6,1,9)              111.164          -DE/DX =    0.0                 !
 ! A3    A(6,1,10)             111.164          -DE/DX =    0.0                 !
 ! A4    A(8,1,9)              107.6563         -DE/DX =    0.0                 !
 ! A5    A(8,1,10)             107.6563         -DE/DX =    0.0                 !
 ! A6    A(9,1,10)             107.497          -DE/DX =    0.0                 !
 ! A7    A(5,2,7)              111.5118         -DE/DX =    0.0                 !
 ! A8    A(5,2,11)             111.164          -DE/DX =    0.0                 !
 ! A9    A(5,2,12)             111.164          -DE/DX =    0.0                 !
 ! A10   A(7,2,11)             107.6563         -DE/DX =    0.0                 !
 ! A11   A(7,2,12)             107.6563         -DE/DX =    0.0                 !
 ! A12   A(11,2,12)            107.497          -DE/DX =    0.0                 !
 ! A13   A(4,3,6)              113.7325         -DE/DX =    0.0                 !
 ! A14   A(4,3,17)             109.2713         -DE/DX =    0.0                 !
 ! A15   A(4,3,18)             109.2713         -DE/DX =    0.0                 !
 ! A16   A(6,3,17)             109.1588         -DE/DX =    0.0                 !
 ! A17   A(6,3,18)             109.1588         -DE/DX =    0.0                 !
 ! A18   A(17,3,18)            105.9564         -DE/DX =    0.0                 !
 ! A19   A(3,4,5)              113.7325         -DE/DX =    0.0                 !
 ! A20   A(3,4,19)             109.2713         -DE/DX =    0.0                 !
 ! A21   A(3,4,20)             109.2713         -DE/DX =    0.0                 !
 ! A22   A(5,4,19)             109.1588         -DE/DX =    0.0                 !
 ! A23   A(5,4,20)             109.1588         -DE/DX =    0.0                 !
 ! A24   A(19,4,20)            105.9564         -DE/DX =    0.0                 !
 ! A25   A(2,5,4)              113.3163         -DE/DX =    0.0                 !
 ! A26   A(2,5,15)             109.4586         -DE/DX =    0.0                 !
 ! A27   A(2,5,16)             109.4586         -DE/DX =    0.0                 !
 ! A28   A(4,5,15)             109.1708         -DE/DX =    0.0                 !
 ! A29   A(4,5,16)             109.1708         -DE/DX =    0.0                 !
 ! A30   A(15,5,16)            106.0047         -DE/DX =    0.0                 !
 ! A31   A(1,6,3)              113.3163         -DE/DX =    0.0                 !
 ! A32   A(1,6,13)             109.4586         -DE/DX =    0.0                 !
 ! A33   A(1,6,14)             109.4586         -DE/DX =    0.0                 !
 ! A34   A(3,6,13)             109.1708         -DE/DX =    0.0                 !
 ! A35   A(3,6,14)             109.1708         -DE/DX =    0.0                 !
 ! A36   A(13,6,14)            106.0047         -DE/DX =    0.0                 !
 ! D1    D(8,1,6,3)            180.0            -DE/DX =    0.0                 !
 ! D2    D(8,1,6,13)           -57.8913         -DE/DX =    0.0                 !
 ! D3    D(8,1,6,14)            57.8913         -DE/DX =    0.0                 !
 ! D4    D(9,1,6,3)             59.8549         -DE/DX =    0.0                 !
 ! D5    D(9,1,6,13)          -178.0364         -DE/DX =    0.0                 !
 ! D6    D(9,1,6,14)           -62.2538         -DE/DX =    0.0                 !
 ! D7    D(10,1,6,3)           -59.8549         -DE/DX =    0.0                 !
 ! D8    D(10,1,6,13)           62.2538         -DE/DX =    0.0                 !
 ! D9    D(10,1,6,14)          178.0364         -DE/DX =    0.0                 !
 ! D10   D(7,2,5,4)            180.0            -DE/DX =    0.0                 !
 ! D11   D(7,2,5,15)           -57.8913         -DE/DX =    0.0                 !
 ! D12   D(7,2,5,16)            57.8913         -DE/DX =    0.0                 !
 ! D13   D(11,2,5,4)           -59.8549         -DE/DX =    0.0                 !
 ! D14   D(11,2,5,15)           62.2538         -DE/DX =    0.0                 !
 ! D15   D(11,2,5,16)          178.0364         -DE/DX =    0.0                 !
 ! D16   D(12,2,5,4)            59.8549         -DE/DX =    0.0                 !
 ! D17   D(12,2,5,15)         -178.0364         -DE/DX =    0.0                 !
 ! D18   D(12,2,5,16)          -62.2538         -DE/DX =    0.0                 !
 ! D19   D(6,3,4,5)            180.0            -DE/DX =    0.0                 !
 ! D20   D(6,3,4,19)           -57.7578         -DE/DX =    0.0                 !
 ! D21   D(6,3,4,20)            57.7578         -DE/DX =    0.0                 !
 ! D22   D(17,3,4,5)            57.7578         -DE/DX =    0.0                 !
 ! D23   D(17,3,4,19)          180.0            -DE/DX =    0.0                 !
 ! D24   D(17,3,4,20)          -64.4845         -DE/DX =    0.0                 !
 ! D25   D(18,3,4,5)           -57.7578         -DE/DX =    0.0                 !
 ! D26   D(18,3,4,19)           64.4845         -DE/DX =    0.0                 !
 ! D27   D(18,3,4,20)          180.0            -DE/DX =    0.0                 !
 ! D28   D(4,3,6,1)            180.0            -DE/DX =    0.0                 !
 ! D29   D(4,3,6,13)            57.7311         -DE/DX =    0.0                 !
 ! D30   D(4,3,6,14)           -57.7311         -DE/DX =    0.0                 !
 ! D31   D(17,3,6,1)           -57.6956         -DE/DX =    0.0                 !
 ! D32   D(17,3,6,13)         -179.9645         -DE/DX =    0.0                 !
 ! D33   D(17,3,6,14)           64.5733         -DE/DX =    0.0                 !
 ! D34   D(18,3,6,1)            57.6956         -DE/DX =    0.0                 !
 ! D35   D(18,3,6,13)          -64.5733         -DE/DX =    0.0                 !
 ! D36   D(18,3,6,14)          179.9645         -DE/DX =    0.0                 !
 ! D37   D(3,4,5,2)            180.0            -DE/DX =    0.0                 !
 ! D38   D(3,4,5,15)            57.7311         -DE/DX =    0.0                 !
 ! D39   D(3,4,5,16)           -57.7311         -DE/DX =    0.0                 !
 ! D40   D(19,4,5,2)            57.6956         -DE/DX =    0.0                 !
 ! D41   D(19,4,5,15)          -64.5733         -DE/DX =    0.0                 !
 ! D42   D(19,4,5,16)          179.9645         -DE/DX =    0.0                 !
 ! D43   D(20,4,5,2)           -57.6956         -DE/DX =    0.0                 !
 ! D44   D(20,4,5,15)         -179.9645         -DE/DX =    0.0                 !
 ! D45   D(20,4,5,16)           64.5733         -DE/DX =    0.0                 !
 --------------------------------------------------------------------------------
 GradGradGradGradGradGradGradGradGradGradGradGradGradGradGradGradGradGrad

                          Input orientation:                          
 ---------------------------------------------------------------------
 Center     Atomic      Atomic             Coordinates (Angstroms)
[...]
    15  H   -0.005017   0.005773
    16  H    0.005773  -0.005017
    17  H    0.005380  -0.004839
    18  H   -0.004839   0.005380
    19  H    0.593606  -0.028276
    20  H   -0.028276   0.593606
          Atomic-Atomic Spin Densities.
               1          2          3          4          5          6
     1  C    0.000000   0.000000   0.000000   0.000000   0.000000   0.000000
     2  C    0.000000   0.000000   0.000000   0.000000   0.000000   0.000000
     3  C    0.000000   0.000000   0.000000   0.000000   0.000000   0.000000
     4  C    0.000000   0.000000   0.000000   0.000000   0.000000   0.000000
     5  C    0.000000   0.000000   0.000000   0.000000   0.000000   0.000000
     6  C    0.000000   0.000000   0.000000   0.000000   0.000000   0.000000
     7  H    0.000000   0.000000   0.000000   0.000000   0.000000   0.000000
     8  H    0.000000   0.000000   0.000000   0.000000   0.000000   0.000000
     9  H    0.000000   0.000000   0.000000   0.000000   0.000000   0.000000
    10  H    0.000000   0.000000   0.000000   0.000000   0.000000   0.000000
    11  H    0.000000   0.000000   0.000000   0.000000   0.000000   0.000000
    12  H    0.000000   0.000000   0.000000   0.000000   0.000000   0.000000
    13  H    0.000000   0.000000   0.000000   0.000000   0.000000   0.000000
    14  H    0.000000   0.000000   0.000000   0.000000   0.000000   0.000000
    15  H    0.000000   0.000000   0.000000   0.000000   0.000000   0.000000
    16  H    0.000000   0.000000   0.000000   0.000000   0.000000   0.000000
    17  H    0.000000   0.000000   0.000000   0.000000   0.000000   0.000000
    18  H    0.000000   0.000000   0.000000   0.000000   0.000000   0.000000
    19  H    0.000000   0.000000   0.000000   0.000000   0.000000   0.000000
    20  H    0.000000   0.000000   0.000000   0.000000   0.000000   0.000000
               7          8          9         10         11         12
     1  C    0.000000   0.000000   0.000000   0.000000   0.000000   0.000000
     2  C    0.000000   0.000000   0.000000   0.000000   0.000000   0.000000
     3  C    0.000000   0.000000   0.000000   0.000000   0.000000   0.000000
     4  C    0.000000   0.000000   0.000000   0.000000   0.000000   0.000000
     5  C    0.000000   0.000000   0.000000   0.000000   0.000000   0.000000
     6  C    0.000000   0.000000   0.000000   0.000000   0.000000   0.000000
     7  H    0.000000   0.000000   0.000000   0.000000   0.000000   0.000000
     8  H    0.000000   0.000000   0.000000   0.000000   0.000000   0.000000
     9  H    0.000000   0.000000   0.000000   0.000000   0.000000   0.000000
    10  H    0.000000   0.000000   0.000000   0.000000   0.000000   0.000000
    11  H    0.000000   0.000000   0.000000   0.000000   0.000000   0.000000
    12  H    0.000000   0.000000   0.000000   0.000000   0.000000   0.000000
    13  H    0.000000   0.000000   0.000000   0.000000   0.000000   0.000000
    14  H    0.000000   0.000000   0.000000   0.000000   0.000000   0.000000
    15  H    0.000000   0.000000   0.000000   0.000000   0.000000   0.000000
    16  H    0.000000   0.000000   0.000000   0.000000   0.000000   0.000000
    17  H    0.000000   0.000000   0.000000   0.000000   0.000000   0.000000
    18  H    0.000000   0.000000   0.000000   0.000000   0.000000   0.000000
    19  H    0.000000   0.000000   0.000000   0.000000   0.000000   0.000000
    20  H    0.000000   0.000000   0.000000   0.000000   0.000000   0.000000
              13         14         15         16         17         18
     1  C    0.000000   0.000000   0.000000   0.000000   0.000000   0.000000
     2  C    0.000000   0.000000   0.000000   0.000000   0.000000   0.000000
     3  C    0.000000   0.000000   0.000000   0.000000   0.000000   0.000000
     4  C    0.000000   0.000000   0.000000   0.000000   0.000000   0.000000
     5  C    0.000000   0.000000   0.000000   0.000000   0.000000   0.000000
     6  C    0.000000   0.000000   0.000000   0.000000   0.000000   0.000000
     7  H    0.000000   0.000000   0.000000   0.000000   0.000000   0.000000
     8  H    0.000000   0.000000   0.000000   0.000000   0.000000   0.000000
     9  H    0.000000   0.000000   0.000000   0.000000   0.000000   0.000000
    10  H    0.000000   0.000000   0.000000   0.000000   0.000000   0.000000
    11  H    0.000000   0.000000   0.000000   0.000000   0.000000   0.000000
    12  H    0.000000   0.000000   0.000000   0.000000   0.000000   0.000000
    13  H    0.000000   0.000000   0.000000   0.000000   0.000000   0.000000
    14  H    0.000000   0.000000   0.000000   0.000000   0.000000   0.000000
    15  H    0.000000   0.000000   0.000000   0.000000   0.000000   0.000000
    16  H    0.000000   0.000000   0.000000   0.000000   0.000000   0.000000
    17  H    0.000000   0.000000   0.000000   0.000000   0.000000   0.000000
    18  H    0.000000   0.000000   0.000000   0.000000   0.000000   0.000000
    19  H    0.000000   0.000000   0.000000   0.000000   0.000000   0.000000
    20  H    0.000000   0.000000   0.000000   0.000000   0.000000   0.000000
              19         20
     1  C    0.000000   0.000000
     2  C    0.000000   0.000000
     3  C    0.000000   0.000000
     4  C    0.000000   0.000000
     5  C    0.000000   0.000000
     6  C    0.000000   0.000000
     7  H    0.000000   0.000000
     8  H    0.000000   0.000000
     9  H    0.000000   0.000000
    10  H    0.000000   0.000000
    11  H    0.000000   0.000000
    12  H    0.000000   0.000000
    13  H    0.000000   0.000000
    14  H    0.000000   0.000000
    15  H    0.000000   0.000000
    16  H    0.000000   0.000000
    17  H    0.000000   0.000000
    18  H    0.000000   0.000000
    19  H    0.000000   0.000000
    20  H    0.000000   0.000000
 Mulliken charges and spin densities:
               1          2
     1  C   -0.316856   0.000000
     2  C   -0.316856   0.000000
     3  C   -0.113764   0.000000
     4  C   -0.113764   0.000000
     5  C   -0.126268   0.000000
     6  C   -0.126268   0.000000
     7  H    0.086985   0.000000
     8  H    0.086985   0.000000
     9  H    0.086681   0.000000
    10  H    0.086681   0.000000
    11  H    0.086681   0.000000
    12  H    0.086681   0.000000
    13  H    0.076115   0.000000
    14  H    0.076115   0.000000
    15  H    0.076115   0.000000
    16  H    0.076115   0.000000
    17  H    0.072156   0.000000
    18  H    0.072156   0.000000
    19  H    0.072156   0.000000
    20  H    0.072156   0.000000
 Sum of Mulliken charges =  -0.00000   0.00000
 Mulliken charges and spin densities with hydrogens summed into heavy atoms:
               1          2
     1  C   -0.056509   0.000000
     2  C   -0.056509   0.000000
     3  C    0.030547   0.000000
     4  C    0.030547   0.000000
     5  C    0.025962   0.000000
     6  C    0.025962   0.000000
 Electronic spatial extent (au):  <R**2>=           1140.8140
 Charge=             -0.0000 electrons
 Dipole moment (field-independent basis, Debye):
    X=             -0.0000    Y=              0.0000    Z=              0.0000  Tot=              0.0000
 Quadrupole moment (field-independent basis, Debye-Ang):
   XX=            -42.3879   YY=            -43.7174   ZZ=            -41.2359
   XY=             -0.1405   XZ=             -0.0000   YZ=              0.0000
 Traceless Quadrupole moment (field-independent basis, Debye-Ang):
   XX=              0.0592   YY=             -1.2704   ZZ=              1.2112
   XY=             -0.1405   XZ=             -0.0000   YZ=              0.0000
 Octapole moment (field-independent basis, Debye-Ang**2):
  XXX=             -0.0000  YYY=             -0.0000  ZZZ=             -0.0000  XYY=              0.0000
  XXY=              0.0000  XXZ=              0.0000  XZZ=              0.0000  YZZ=              0.0000
  YYZ=              0.0000  XYZ=             -0.0000
 Hexadecapole moment (field-independent basis, Debye-Ang**3):
 XXXX=           -439.2575 YYYY=          -1120.1415 ZZZZ=            -85.9708 XXXY=           -260.0958
 XXXZ=              0.0000 YYYX=           -276.0540 YYYZ=             -0.0000 ZZZX=              0.0000
 ZZZY=              0.0000 XXYY=           -253.5242 XXZZ=            -87.6867 YYZZ=           -191.1037
 XXYZ=             -0.0000 YYXZ=              0.0000 ZZXY=            -91.3123
 N-N= 2.439590760307D+02 E-N=-1.034848339961D+03  KE= 2.352662130220D+02
 Symmetry AG   KE= 1.132810078950D+02
 Symmetry BG   KE= 5.911579169478D+00
 Symmetry AU   KE= 5.714433391542D+00
 Symmetry BU   KE= 1.103591925660D+02
 Symmetry AG   SP= 0.000000000000D+00
 Symmetry BG   SP= 0.000000000000D+00
 Symmetry AU   SP= 0.000000000000D+00
 Symmetry BU   SP= 0.000000000000D+00
                          Isotropic Fermi Contact Couplings
        Atom                 a.u.       MegaHertz       Gauss      10(-4) cm-1
     1  C(13)              0.00000       0.00000       0.00000       0.00000
     2  C(13)              0.00000       0.00000       0.00000       0.00000
     3  C(13)              0.00000       0.00000       0.00000       0.00000
     4  C(13)              0.00000       0.00000       0.00000       0.00000
     5  C(13)              0.00000       0.00000       0.00000       0.00000
     6  C(13)              0.00000       0.00000       0.00000       0.00000
     7  H(1)               0.00000       0.00000       0.00000       0.00000
     8  H(1)               0.00000       0.00000       0.00000       0.00000
     9  H(1)               0.00000       0.00000       0.00000       0.00000
    10  H(1)               0.00000       0.00000       0.00000       0.00000
    11  H(1)               0.00000       0.00000       0.00000       0.00000
    12  H(1)               0.00000       0.00000       0.00000       0.00000
    13  H(1)               0.00000       0.00000       0.00000       0.00000
    14  H(1)               0.00000       0.00000       0.00000       0.00000
    15  H(1)               0.00000       0.00000       0.00000       0.00000
    16  H(1)               0.00000       0.00000       0.00000       0.00000
    17  H(1)               0.00000       0.00000       0.00000       0.00000
    18  H(1)               0.00000       0.00000       0.00000       0.00000
    19  H(1)               0.00000       0.00000       0.00000       0.00000
    20  H(1)               0.00000       0.00000       0.00000       0.00000
 --------------------------------------------------------
       Center         ----  Spin Dipole Couplings  ----
                      3XX-RR        3YY-RR        3ZZ-RR
 --------------------------------------------------------
     1   Atom        0.000000      0.000000      0.000000
     2   Atom        0.000000      0.000000      0.000000
     3   Atom        0.000000      0.000000      0.000000
     4   Atom        0.000000      0.000000      0.000000
     5   Atom        0.000000      0.000000      0.000000
     6   Atom        0.000000      0.000000      0.000000
     7   Atom        0.000000      0.000000      0.000000
     8   Atom        0.000000      0.000000      0.000000
     9   Atom        0.000000      0.000000      0.000000
    10   Atom        0.000000      0.000000      0.000000
    11   Atom        0.000000      0.000000      0.000000
    12   Atom        0.000000      0.000000      0.000000
    13   Atom        0.000000      0.000000      0.000000
    14   Atom        0.000000      0.000000      0.000000
    15   Atom        0.000000      0.000000      0.000000
    16   Atom        0.000000      0.000000      0.000000
    17   Atom        0.000000      0.000000      0.000000
    18   Atom        0.000000      0.000000      0.000000
    19   Atom        0.000000      0.000000      0.000000
    20   Atom        0.000000      0.000000      0.000000
 --------------------------------------------------------
                        XY            XZ            YZ
 --------------------------------------------------------
     1   Atom        0.000000      0.000000      0.000000
     2   Atom        0.000000      0.000000      0.000000
     3   Atom        0.000000      0.000000      0.000000
     4   Atom        0.000000      0.000000      0.000000
     5   Atom        0.000000      0.000000      0.000000
     6   Atom        0.000000      0.000000      0.000000
     7   Atom        0.000000      0.000000      0.000000
     8   Atom        0.000000      0.000000      0.000000
     9   Atom        0.000000      0.000000      0.000000
    10   Atom        0.000000      0.000000      0.000000
    11   Atom        0.000000      0.000000      0.000000
    12   Atom        0.000000      0.000000      0.000000
    13   Atom        0.000000      0.000000      0.000000
    14   Atom        0.000000      0.000000      0.000000
    15   Atom        0.000000      0.000000      0.000000
    16   Atom        0.000000      0.000000      0.000000
    17   Atom        0.000000      0.000000      0.000000
    18   Atom        0.000000      0.000000      0.000000
    19   Atom        0.000000      0.000000      0.000000
    20   Atom        0.000000      0.000000      0.000000
 --------------------------------------------------------


 ---------------------------------------------------------------------------------
              Anisotropic Spin Dipole Couplings in Principal Axis System
 ---------------------------------------------------------------------------------

       Atom             a.u.   MegaHertz   Gauss  10(-4) cm-1        Axes

              Baa     0.0000     0.000     0.000     0.000  1.0000  0.0000  0.0000
     1 C(13)  Bbb     0.0000     0.000     0.000     0.000 -0.0000  1.0000  0.0000
              Bcc     0.0000     0.000     0.000     0.000  0.0000  0.0000  1.0000
 
              Baa     0.0000     0.000     0.000     0.000  1.0000  0.0000  0.0000
     2 C(13)  Bbb     0.0000     0.000     0.000     0.000 -0.0000  1.0000  0.0000
              Bcc     0.0000     0.000     0.000     0.000  0.0000  0.0000  1.0000
 
              Baa     0.0000     0.000     0.000     0.000  1.0000  0.0000  0.0000
     3 C(13)  Bbb     0.0000     0.000     0.000     0.000 -0.0000  1.0000  0.0000
              Bcc     0.0000     0.000     0.000     0.000  0.0000  0.0000  1.0000
 
              Baa     0.0000     0.000     0.000     0.000  1.0000  0.0000  0.0000
     4 C(13)  Bbb     0.0000     0.000     0.000     0.000 -0.0000  1.0000  0.0000
              Bcc     0.0000     0.000     0.000     0.000  0.0000  0.0000  1.0000
 
              Baa     0.0000     0.000     0.000     0.000  1.0000  0.0000  0.0000
     5 C(13)  Bbb     0.0000     0.000     0.000     0.000 -0.0000  1.0000  0.0000
              Bcc     0.0000     0.000     0.000     0.000  0.0000  0.0000  1.0000
 
              Baa     0.0000     0.000     0.000     0.000  1.0000  0.0000  0.0000
     6 C(13)  Bbb     0.0000     0.000     0.000     0.000 -0.0000  1.0000  0.0000
              Bcc     0.0000     0.000     0.000     0.000  0.0000  0.0000  1.0000
 
              Baa     0.0000     0.000     0.000     0.000  1.0000  0.0000  0.0000
     7 H(1)   Bbb     0.0000     0.000     0.000     0.000 -0.0000  1.0000  0.0000
              Bcc     0.0000     0.000     0.000     0.000  0.0000  0.0000  1.0000
 
              Baa     0.0000     0.000     0.000     0.000  1.0000  0.0000  0.0000
     8 H(1)   Bbb     0.0000     0.000     0.000     0.000 -0.0000  1.0000  0.0000
              Bcc     0.0000     0.000     0.000     0.000  0.0000  0.0000  1.0000
 
              Baa     0.0000     0.000     0.000     0.000  1.0000  0.0000  0.0000
     9 H(1)   Bbb     0.0000     0.000     0.000     0.000 -0.0000  1.0000  0.0000
              Bcc     0.0000     0.000     0.000     0.000  0.0000  0.0000  1.0000
 
              Baa     0.0000     0.000     0.000     0.000  1.0000  0.0000  0.0000
    10 H(1)   Bbb     0.0000     0.000     0.000     0.000 -0.0000  1.0000  0.0000
              Bcc     0.0000     0.000     0.000     0.000  0.0000  0.0000  1.0000
 
              Baa     0.0000     0.000     0.000     0.000  1.0000  0.0000  0.0000
    11 H(1)   Bbb     0.0000     0.000     0.000     0.000 -0.0000  1.0000  0.0000
              Bcc     0.0000     0.000     0.000     0.000  0.0000  0.0000  1.0000
 
              Baa     0.0000     0.000     0.000     0.000  1.0000  0.0000  0.0000
    12 H(1)   Bbb     0.0000     0.000     0.000     0.000 -0.0000  1.0000  0.0000
              Bcc     0.0000     0.000     0.000     0.000  0.0000  0.0000  1.0000
 
              Baa     0.0000     0.000     0.000     0.000  1.0000  0.0000  0.0000
    13 H(1)   Bbb     0.0000     0.000     0.000     0.000 -0.0000  1.0000  0.0000
              Bcc     0.0000     0.000     0.000     0.000  0.0000  0.0000  1.0000
 
              Baa     0.0000     0.000     0.000     0.000  1.0000  0.0000  0.0000
    14 H(1)   Bbb     0.0000     0.000     0.000     0.000 -0.0000  1.0000  0.0000
              Bcc     0.0000     0.000     0.000     0.000  0.0000  0.0000  1.0000
 
              Baa     0.0000     0.000     0.000     0.000  1.0000  0.0000  0.0000
    15 H(1)   Bbb     0.0000     0.000     0.000     0.000 -0.0000  1.0000  0.0000
              Bcc     0.0000     0.000     0.000     0.000  0.0000  0.0000  1.0000
 
              Baa     0.0000     0.000     0.000     0.000  1.0000  0.0000  0.0000
    16 H(1)   Bbb     0.0000     0.000     0.000     0.000 -0.0000  1.0000  0.0000
              Bcc     0.0000     0.000     0.000     0.000  0.0000  0.0000  1.0000
 
              Baa     0.0000     0.000     0.000     0.000  1.0000  0.0000  0.0000
    17 H(1)   Bbb     0.0000     0.000     0.000     0.000 -0.0000  1.0000  0.0000
              Bcc     0.0000     0.000     0.000     0.000  0.0000  0.0000  1.0000
 
              Baa     0.0000     0.000     0.000     0.000  1.0000  0.0000  0.0000
    18 H(1)   Bbb     0.0000     0.000     0.000     0.000 -0.0000  1.0000  0.0000
              Bcc     0.0000     0.000     0.000     0.000  0.0000  0.0000  1.0000
 
              Baa     0.0000     0.000     0.000     0.000  1.0000  0.0000  0.0000
    19 H(1)   Bbb     0.0000     0.000     0.000     0.000 -0.0000  1.0000  0.0000
              Bcc     0.0000     0.000     0.000     0.000  0.0000  0.0000  1.0000
 
              Baa     0.0000     0.000     0.000     0.000  1.0000  0.0000  0.0000
    20 H(1)   Bbb     0.0000     0.000     0.000     0.000 -0.0000  1.0000  0.0000
              Bcc     0.0000     0.000     0.000     0.000  0.0000  0.0000  1.0000
 

 ---------------------------------------------------------------------------------

 1\1\GINC-GAMBA\SP\ROHF\Gen\C6H14\IRIKURA\30-Sep-2023\0\\# rohf/gen geo
 m=check guess=check\\n-hexane, ROHF/cc-pVTZ-F12\\0,1\C,0,1.409942,2.89
 7556,0.\C,0,-1.409942,-2.897556,0.\C,0,0.005553,0.764388,0.\C,0,-0.005
 553,-0.764388,0.\C,0,-1.409942,-1.369687,0.\C,0,1.409942,1.369687,0.\H
 ,0,-2.424797,-3.297559,0.\H,0,2.424797,3.297559,0.\H,0,0.898575,3.2917
 81,0.880556\H,0,0.898575,3.291781,-0.880556\H,0,-0.898575,-3.291781,-0
 .880556\H,0,-0.898575,-3.291781,0.880556\H,0,1.958302,1.005193,-0.8738
 66\H,0,1.958302,1.005193,0.873866\H,0,-1.958302,-1.005193,-0.873866\H,
 0,-1.958302,-1.005193,0.873866\H,0,-0.543391,1.129871,0.874471\H,0,-0.
 543391,1.129871,-0.874471\H,0,0.543391,-1.129871,-0.874471\H,0,0.54339
 1,-1.129871,0.874471\\Version=ES64L-G16RevB.01\State=1-AG\HF=-235.4645
 415\RMSD=9.103e-09\Dipole=0.,0.,0.\Quadrupole=0.0440126,-0.9444762,0.9
 004636,-0.1044865,0.,0.\PG=C02H [SGH(C6H2),X(H12)]\\@


 KEEP CLOSE TO NATURES HEART, YOURSELF;
 AND BREAK CLEAR AWAY, ONCE IN A WHILE, AND
 CLIMB A MOUNTAIN OR SPEND A WEEK IN THE
 WOODS.  WASH YOUR SPIRIT CLEAN...
                                         -- JOHN MUIR
 Job cpu time:       0 days  0 hours 13 minutes 46.5 seconds.
 Elapsed time:       0 days  0 hours  3 minutes 26.8 seconds.
 File lengths (MBytes):  RWF=    232 Int=      0 D2E=      0 Chk=     29 Scr=      1
 Normal termination of Gaussian 16 at Sat Sep 30 08:42:33 2023.
