 Entering Gaussian System, Link 0=g16
 AtFile(1): pcseg2.gbs
            -H     0
            S   4   1.00
                  0.754732D+02           0.427821D-02
                  0.113575D+02           0.328672D-01
                  0.260081D+01           0.159578D+00
                  0.735503D+00           0.500000D+00
            S   1   1.00
                  0.231761D+00           1.0000000
            S   1   1.00
                  0.741675D-01           1.0000000
            P   1   1.00
                  0.160000D+01           1.0000000
            P   1   1.00
                  0.450000D+00           1.0000000
            D   1   1.00
                  0.125000D+01           1.0000000
            ****
            -C     0
            S   7   1.00
                  0.731999D+04           0.695369D-03
                  0.109818D+04           0.537138D-02
                  0.250014D+03           0.274734D-01
                  0.707586D+02           0.105078D+00
                  0.228595D+02           0.291262D+00
                  0.803936D+01           0.500000D+00
                  0.289309D+01           0.362224D+00
            S   2   1.00
                  0.521640D+01          -0.957844D-01
                  0.556124D+00           0.500000D+00
            S   1   1.00
                  0.228813D+00           1.0000000
            S   1   1.00
                  0.936338D-01           1.0000000
            P   4   1.00
                  0.339855D+02           0.818395D-02
                  0.772957D+01           0.586921D-01
                  0.224954D+01           0.222514D+00
                  0.767681D+00           0.500000D+00
            P   1   1.00
                  0.263283D+00           1.0000000
            P   1   1.00
                  0.848744D-01           1.0000000
            D   1   1.00
                  0.140000D+01           1.0000000
            D   1   1.00
                  0.450000D+00           1.0000000
            F   1   1.00
                  0.950000D+00           1.0000000
            ****
            -O     0
            S   7   1.00
                  0.135887D+05           0.665492D-03
                  0.203847D+04           0.514222D-02
                  0.464041D+03           0.263472D-01
                  0.131339D+03           0.101500D+00
                  0.425340D+02           0.285877D+00
                  0.150429D+02           0.500000D+00
                  0.546616D+01           0.368211D+00
            S   2   1.00
                  0.100915D+02          -0.100084D+00
                  0.110429D+01           0.500000D+00
            S   1   1.00
                  0.448082D+00           1.0000000
            S   1   1.00
                  0.175325D+00           1.0000000
            P   4   1.00
                  0.608220D+02           0.908253D-02
                  0.140332D+02           0.645878D-01
                  0.418244D+01           0.241502D+00
                  0.142490D+01           0.500000D+00
            P   1   1.00
                  0.478741D+00           1.0000000
            P   1   1.00
                  0.146257D+00           1.0000000
            D   1   1.00
                  0.220000D+01           1.0000000
            D   1   1.00
                  0.650000D+00           1.0000000
            F   1   1.00
                  0.110000D+01           1.0000000
            ****
            -N     0
            S   7   1.00
                  0.101643D+05           0.682757D-03
                  0.152481D+04           0.527488D-02
                  0.347119D+03           0.270037D-01
                  0.982389D+02           0.103673D+00
                  0.317799D+02           0.289575D+00
                  0.112240D+02           0.500000D+00
                  0.406611D+01           0.364621D+00
            S   2   1.00
                  0.747898D+01          -0.975681D-01
                  0.805040D+00           0.500000D+00
            S   1   1.00
                  0.324626D+00           1.0000000
            S   1   1.00
                  0.128132D+00           1.0000000
            P   4   1.00
                  0.482704D+02           0.829547D-02
                  0.110815D+02           0.596223D-01
                  0.326643D+01           0.227889D+00
                  0.111680D+01           0.500000D+00
            P   1   1.00
                  0.382049D+00           1.0000000
            P   1   1.00
                  0.121222D+00           1.0000000
            D   1   1.00
                  0.180000D+01           1.0000000
            D   1   1.00
                  0.550000D+00           1.0000000
            F   1   1.00
                  0.102000D+01           1.0000000
            ****
            -F     0
            S   7   1.00
                  0.174507D+05           0.655972D-03
                  0.261768D+04           0.506944D-02
                  0.595857D+03           0.259899D-01
                  0.168651D+03           0.100353D+00
                  0.546654D+02           0.284095D+00
                  0.193717D+02           0.500000D+00
                  0.706202D+01           0.370721D+00
            S   2   1.00
                  0.131197D+02          -0.101997D+00
                  0.145046D+01           0.500000D+00
            S   1   1.00
                  0.588255D+00           1.0000000
            S   1   1.00
                  0.227960D+00           1.0000000
            P   4   1.00
                  0.779407D+02           0.931135D-02
                  0.180425D+02           0.663964D-01
                  0.542342D+01           0.246386D+00
                  0.184876D+01           0.500000D+00
            P   1   1.00
                  0.617455D+00           1.0000000
            P   1   1.00
                  0.185496D+00           1.0000000
            D   1   1.00
                  0.280000D+01           1.0000000
            D   1   1.00
                  0.800000D+00           1.0000000
            F   1   1.00
                  0.120000D+01           1.0000000
            ****
            -Cl     0
            S   8   1.00
                  0.154272D+06           0.222473D-03
                  0.231232D+05           0.172590D-02
                  0.526257D+04           0.899286D-02
                  0.148995D+04           0.367724D-01
                  0.485417D+03           0.121446D+00
                  0.174634D+03           0.304148D+00
                  0.672393D+02           0.500000D+00
                  0.265780D+02           0.360252D+00
            S   3   1.00
                  0.131826D+03          -0.531330D-01
                  0.400703D+02          -0.233346D+00
                  0.789448D+01           0.500000D+00
            S   2   1.00
                  0.427711D+01           0.500000D+00
                  0.196233D+01           0.370517D+00
            S   1   1.00
                  0.520793D+00           1.0000000
            S   1   1.00
                  0.181633D+00           1.0000000
            P   7   1.00
                  0.124440D+04           0.988206D-03
                  0.295109D+03           0.829674D-02
                  0.947224D+02           0.430906D-01
                  0.352588D+02           0.148443D+00
                  0.144211D+02           0.344744D+00
                  0.610371D+01           0.500000D+00
                  0.258886D+01           0.348278D+00
            P   2   1.00
                  0.109447D+02          -0.196768D-01
                  0.104413D+01           0.500000D+00
            P   1   1.00
                  0.376184D+00           1.0000000
            P   1   1.00
                  0.120613D+00           1.0000000
            D   1   1.00
                  0.231000D+01           1.0000000
            D   1   1.00
                  0.520000D+00           1.0000000
            F   1   1.00
                  0.720000D+00           1.0000000
            ****
            -S     0
            S   8   1.00
                  0.134700D+06           0.226231D-03
                  0.201904D+05           0.175488D-02
                  0.459528D+04           0.914190D-02
                  0.130109D+04           0.373551D-01
                  0.423902D+03           0.123121D+00
                  0.152485D+03           0.306801D+00
                  0.586925D+02           0.500000D+00
                  0.231461D+02           0.354358D+00
            S   3   1.00
                  0.116327D+03          -0.491772D-01
                  0.352841D+02          -0.215962D+00
                  0.677831D+01           0.500000D+00
            S   2   1.00
                  0.360404D+01           0.500000D+00
                  0.164871D+01           0.366278D+00
            S   1   1.00
                  0.421821D+00           1.0000000
            S   1   1.00
                  0.147554D+00           1.0000000
            P   7   1.00
                  0.104863D+04           0.105273D-02
                  0.248717D+03           0.879338D-02
                  0.797887D+02           0.453358D-01
                  0.296023D+02           0.154476D+00
                  0.120627D+02           0.352366D+00
                  0.507628D+01           0.500000D+00
                  0.213375D+01           0.346429D+00
            P   2   1.00
                  0.928958D+01          -0.185932D-01
                  0.837819D+00           0.500000D+00
            P   1   1.00
                  0.301495D+00           1.0000000
            P   1   1.00
                  0.974740D-01           1.0000000
            D   1   1.00
                  0.210000D+01           1.0000000
            D   1   1.00
                  0.480000D+00           1.0000000
            F   1   1.00
                  0.660000D+00           1.0000000
            ****
            -Br     0
            S    10   1.00
                  0.233625D+07           0.532336D-04
                  0.349961D+06           0.413715D-03
                  0.796444D+05           0.217123D-02
                  0.225555D+05           0.910109D-02
                  0.735546D+04           0.323789D-01
                  0.265352D+04           0.988755D-01
                  0.103517D+04           0.248138D+00
                  0.422205D+03           0.474328D+00
                  0.180035D+03           0.500000D+00
                  0.793308D+02           0.187769D+00
            S    4   1.00
                  0.620834D+03          -0.226511D-01
                  0.190829D+03          -0.109497D+00
                  0.312505D+02           0.500000D+00
                  0.135270D+02           0.492812D+00
            S    2   1.00
                  0.216097D+02          -0.165418D+00
                  0.372566D+01           0.500000D+00
            S    1   1.00
                  0.169770D+01           1.0000000
            S    1   1.00
                  0.489332D+00           1.0000000
            S    1   1.00
                  0.175712D+00           1.0000000
            P    8   1.00
                  0.960829D+04           0.478974D-03
                  0.227618D+04           0.417853D-02
                  0.736723D+03           0.229315D-01
                  0.281579D+03           0.892653D-01
                  0.118395D+03           0.255288D+00
                  0.527481D+02           0.479074D+00
                  0.245098D+02           0.500000D+00
                  0.112009D+02           0.200944D+00
            P    4   1.00
                  0.587849D+02          -0.189674D-01
                  0.918962D+01           0.264104D+00
                  0.413895D+01           0.500000D+00
                  0.184225D+01           0.319316D+00
            P    1   1.00
                  0.713862D+00           1.0000000
            P    1   1.00
                  0.274232D+00           1.0000000
            P    1   1.00
                  0.944411D-01           1.0000000
            D    7   1.00
                  0.398470D+03           0.204066D-02
                  0.118967D+03           0.175171D-01
                  0.450197D+02           0.829708D-01
                  0.190320D+02           0.236284D+00
                  0.855686D+01           0.428468D+00
                  0.382950D+01           0.500000D+00
                  0.166291D+01           0.349360D+00
            D    1   1.00
                  0.672953D+00           1.0000000
            D    1   1.00
                  0.252000D+00           1.0000000
            F    1   1.00
                  0.530000D+00           1.0000000
            ****
            -Si     0
            S    8   1.00
                  0.996133D+05           0.235546D-03
                  0.149311D+05           0.182707D-02
                  0.339820D+04           0.951425D-02
                  0.962140D+03           0.388172D-01
                  0.313430D+03           0.127328D+00
                  0.112683D+03           0.313522D+00
                  0.433372D+02           0.500000D+00
                  0.170029D+02           0.340347D+00
            S    3   1.00
                  0.884208D+02          -0.404451D-01
                  0.266756D+02          -0.178059D+00
                  0.479640D+01           0.500000D+00
            S    2   1.00
                  0.239385D+01           0.500000D+00
                  0.108333D+01           0.338016D+00
            S    1   1.00
                  0.252420D+00           1.0000000
            S    1   1.00
                  0.891210D-01           1.0000000
            P    7   1.00
                  0.709901D+03           0.123028D-02
                  0.168426D+03           0.101366D-01
                  0.539946D+02           0.511840D-01
                  0.198646D+02           0.169967D+00
                  0.801369D+01           0.370717D+00
                  0.331870D+01           0.500000D+00
                  0.136112D+01           0.344128D+00
            P    2   1.00
                  0.622158D+01          -0.166609D-01
                  0.503049D+00           0.500000D+00
            P    1   1.00
                  0.179848D+00           1.0000000
            P    1   1.00
                  0.591912D-01           1.0000000
            D    1   1.00
                  0.168000D+01           1.0000000
            D    1   1.00
                  0.380000D+00           1.0000000
            F    1   1.00
                  0.540000D+00           1.0000000
            ****
            -P     0
            S    8   1.00
                  0.116416D+06           0.230715D-03
                  0.174500D+05           0.178960D-02
                  0.397149D+04           0.932116D-02
                  0.112447D+04           0.380591D-01
                  0.366347D+03           0.125148D+00
                  0.131757D+03           0.310022D+00
                  0.506988D+02           0.500000D+00
                  0.199436D+02           0.347528D+00
            S    3   1.00
                  0.101878D+03          -0.446755D-01
                  0.308249D+02          -0.196376D+00
                  0.573688D+01           0.500000D+00
            S    2   1.00
                  0.296868D+01           0.500000D+00
                  0.135315D+01           0.355098D+00
            S    1   1.00
                  0.332196D+00           1.0000000
            S    1   1.00
                  0.116229D+00           1.0000000
            P    7   1.00
                  0.873928D+03           0.112375D-02
                  0.207298D+03           0.933330D-02
                  0.664628D+02           0.477213D-01
                  0.245665D+02           0.160733D+00
                  0.996820D+01           0.359760D+00
                  0.416536D+01           0.500000D+00
                  0.173022D+01           0.346593D+00
            P    2   1.00
                  0.772530D+01          -0.175718D-01
                  0.657252D+00           0.500000D+00
            P    1   1.00
                  0.239903D+00           1.0000000
            P    1   1.00
                  0.800988D-01           1.0000000
            D    1   1.00
                  0.189000D+01           1.0000000
            D    1   1.00
                  0.430000D+00           1.0000000
            F    1   1.00
                  0.600000D+00           1.0000000
            ****
            
 Initial command:
 /usr/local/apps/g16_b01_avx/g16/l1.exe "/wrk/irikura/Gau-407189.inp" -scrdir="/wrk/irikura/"
 Entering Link 1 = /usr/local/apps/g16_b01_avx/g16/l1.exe PID=    407191.
  
 Copyright (c) 1988-2017, Gaussian, Inc.  All Rights Reserved.
  
 This is part of the Gaussian(R) 16 program.  It is based on
 the Gaussian(R) 09 system (copyright 2009, Gaussian, Inc.),
 the Gaussian(R) 03 system (copyright 2003, Gaussian, Inc.),
 the Gaussian(R) 98 system (copyright 1998, Gaussian, Inc.),
 the Gaussian(R) 94 system (copyright 1995, Gaussian, Inc.),
 the Gaussian 92(TM) system (copyright 1992, Gaussian, Inc.),
 the Gaussian 90(TM) system (copyright 1990, Gaussian, Inc.),
 the Gaussian 88(TM) system (copyright 1988, Gaussian, Inc.),
 the Gaussian 86(TM) system (copyright 1986, Carnegie Mellon
 University), and the Gaussian 82(TM) system (copyright 1983,
 Carnegie Mellon University). Gaussian is a federally registered
 trademark of Gaussian, Inc.
  
 This software contains proprietary and confidential information,
 including trade secrets, belonging to Gaussian, Inc.
  
 This software is provided under written license and may be
 used, copied, transmitted, or stored only in accord with that
 written license.
  
 The following legend is applicable only to US Government
 contracts under FAR:
  
                    RESTRICTED RIGHTS LEGEND
  
 Use, reproduction and disclosure by the US Government is
 subject to restrictions as set forth in subparagraphs (a)
 and (c) of the Commercial Computer Software - Restricted
 Rights clause in FAR 52.227-19.
  
 Gaussian, Inc.
 340 Quinnipiac St., Bldg. 40, Wallingford CT 06492
  
  
 ---------------------------------------------------------------
 Warning -- This program may not be used in any manner that
 competes with the business of Gaussian, Inc. or will provide
 assistance to any competitor of Gaussian, Inc.  The licensee
 of this program is prohibited from giving any competitor of
 Gaussian, Inc. access to this program.  By using this program,
 the user acknowledges that Gaussian, Inc. is engaged in the
 business of creating and licensing software in the field of
 computational chemistry and represents and warrants to the
 licensee that it is not a competitor of Gaussian, Inc. and that
 it will not use this program in any manner prohibited above.
 ---------------------------------------------------------------
  

 Cite this work as:
 Gaussian 16, Revision B.01,
 M. J. Frisch, G. W. Trucks, H. B. Schlegel, G. E. Scuseria, 
 M. A. Robb, J. R. Cheeseman, G. Scalmani, V. Barone, 
 G. A. Petersson, H. Nakatsuji, X. Li, M. Caricato, A. V. Marenich, 
 J. Bloino, B. G. Janesko, R. Gomperts, B. Mennucci, H. P. Hratchian, 
 J. V. Ortiz, A. F. Izmaylov, J. L. Sonnenberg, D. Williams-Young, 
 F. Ding, F. Lipparini, F. Egidi, J. Goings, B. Peng, A. Petrone, 
 T. Henderson, D. Ranasinghe, V. G. Zakrzewski, J. Gao, N. Rega, 
 G. Zheng, W. Liang, M. Hada, M. Ehara, K. Toyota, R. Fukuda, 
 J. Hasegawa, M. Ishida, T. Nakajima, Y. Honda, O. Kitao, H. Nakai, 
 T. Vreven, K. Throssell, J. A. Montgomery, Jr., J. E. Peralta, 
 F. Ogliaro, M. J. Bearpark, J. J. Heyd, E. N. Brothers, K. N. Kudin, 
 V. N. Staroverov, T. A. Keith, R. Kobayashi, J. Normand, 
 K. Raghavachari, A. P. Rendell, J. C. Burant, S. S. Iyengar, 
 J. Tomasi, M. Cossi, J. M. Millam, M. Klene, C. Adamo, R. Cammi, 
 J. W. Ochterski, R. L. Martin, K. Morokuma, O. Farkas, 
 J. B. Foresman, and D. J. Fox, Gaussian, Inc., Wallingford CT, 2016.
 
 ******************************************
 Gaussian 16:  ES64L-G16RevB.01 20-Dec-2017
                29-Sep-2023 
 ******************************************
 %chk=hn3.chk
 %mem=500mw
 %nprocs=4
 Will use up to    4 processors via shared memory.
 ---------------------------------------
 # b3lyp/gen opt freq CPHF(Grid=OneStep)
 ---------------------------------------
 1/18=20,19=15,26=3,38=1/1,3;
 2/9=110,12=2,17=6,18=5,40=1/2;
 3/5=7,11=2,25=1,30=1,71=1,74=-5/1,2,3;
 4//1;
 5/5=2,38=5/2;
 6/7=2,8=2,9=2,10=2,28=1/1;
 7//1,2,3,16;
 1/18=20,19=15,26=3/3(2);
 2/9=110/2;
 99//99;
 2/9=110/2;
 3/5=7,6=1,11=2,25=1,30=1,71=1,74=-5,82=7/1,2,3;
 4/5=5,16=3,69=1/1;
 5/5=2,38=5/2;
 7//1,2,3,16;
 1/18=20,19=15,26=3/3(-5);
 2/9=110/2;
 6/7=2,8=2,9=2,10=2,19=2,28=1/1;
 99/9=1/99;
 -----------------------------
 hydrazoic acid, B3LYP/pcseg-2
 -----------------------------
 Symbolic Z-matrix:
 Charge =  0 Multiplicity = 1
 N                     0.08519  -1.12087   0. 
 N                     0.        0.11116   0. 
 N                    -0.23655   1.21154   0. 
 H                     1.05954  -1.41276   0. 
 

 GradGradGradGradGradGradGradGradGradGradGradGradGradGradGradGradGradGrad
 Berny optimization.
 Initialization pass.
                           ----------------------------
                           !    Initial Parameters    !
                           ! (Angstroms and Degrees)  !
 --------------------------                            --------------------------
 ! Name  Definition              Value          Derivative Info.                !
 --------------------------------------------------------------------------------
 ! R1    R(1,2)                  1.235          estimate D2E/DX2                !
 ! R2    R(1,4)                  1.0171         estimate D2E/DX2                !
 ! R3    R(2,3)                  1.1255         estimate D2E/DX2                !
 ! A1    A(2,1,4)              110.632          estimate D2E/DX2                !
 ! A2    L(1,2,3,4,-1)         188.1769         estimate D2E/DX2                !
 ! A3    L(1,2,3,4,-2)         180.0            estimate D2E/DX2                !
 --------------------------------------------------------------------------------
 Trust Radius=3.00D-01 FncErr=1.00D-07 GrdErr=1.00D-06 EigMax=2.50D+02 EigMin=1.00D-04
 Number of steps in this run=     20 maximum allowed number of steps=    100.
 GradGradGradGradGradGradGradGradGradGradGradGradGradGradGradGradGradGrad

                          Input orientation:                          
 ---------------------------------------------------------------------
 Center     Atomic      Atomic             Coordinates (Angstroms)
 Number     Number       Type             X           Y           Z
 ---------------------------------------------------------------------
      1          7           0        0.085190   -1.120874    0.000000
      2          7           0        0.000000    0.111155    0.000000
      3          7           0       -0.236553    1.211540    0.000000
      4          1           0        1.059537   -1.412756    0.000000
 ---------------------------------------------------------------------
                    Distance matrix (angstroms):
                    1          2          3          4
     1  N    0.000000
     2  N    1.234971   0.000000
     3  N    2.354501   1.125524   0.000000
     4  H    1.017127   1.856050   2.926906   0.000000
 Stoichiometry    HN3
 Framework group  CS[SG(HN3)]
 Deg. of freedom     5
 Full point group                 CS      NOp   2
 Largest Abelian subgroup         CS      NOp   2
 Largest concise Abelian subgroup C1      NOp   1
                         Standard orientation:                         
 ---------------------------------------------------------------------
 Center     Atomic      Atomic             Coordinates (Angstroms)
 Number     Number       Type             X           Y           Z
 ---------------------------------------------------------------------
      1          7           0        0.085192   -1.120873    0.000000
      2          7           0        0.000000    0.111155    0.000000
      3          7           0       -0.236555    1.211540    0.000000
      4          1           0        1.059539   -1.412754    0.000000
 ---------------------------------------------------------------------
 Rotational constants (GHZ):         623.1414469          12.1878893          11.9540820
 General basis read from cards:  (5D, 7F)
 There are    83 symmetry adapted cartesian basis functions of A'  symmetry.
 There are    37 symmetry adapted cartesian basis functions of A"  symmetry.
 There are    70 symmetry adapted basis functions of A'  symmetry.
 There are    34 symmetry adapted basis functions of A"  symmetry.
   104 basis functions,   171 primitive gaussians,   120 cartesian basis functions
    11 alpha electrons       11 beta electrons
       nuclear repulsion energy        61.9500969461 Hartrees.
 NAtoms=    4 NActive=    4 NUniq=    4 SFac= 1.00D+00 NAtFMM=   60 NAOKFM=F Big=F
 Integral buffers will be    131072 words long.
 Raffenetti 2 integral format.
 Two-electron integral symmetry is turned on.
 One-electron integrals computed using PRISM.
 NBasis=   104 RedAO= T EigKep=  1.96D-04  NBF=    70    34
 NBsUse=   104 1.00D-06 EigRej= -1.00D+00 NBFU=    70    34
 ExpMin= 7.42D-02 ExpMax= 1.02D+04 ExpMxC= 3.47D+02 IAcc=3 IRadAn=         5 AccDes= 0.00D+00
 Harris functional with IExCor=  402 and IRadAn=       5 diagonalized for initial guess.
 HarFok:  IExCor=  402 AccDes= 0.00D+00 IRadAn=         5 IDoV= 1 UseB2=F ITyADJ=14
 ICtDFT=  3500011 ScaDFX=  1.000000  1.000000  1.000000  1.000000
 FoFCou: FMM=F IPFlag=           0 FMFlag=      100000 FMFlg1=           0
         NFxFlg=           0 DoJE=T BraDBF=F KetDBF=T FulRan=T
         wScrn=  0.000000 ICntrl=       500 IOpCl=  0 I1Cent=   200000004 NGrid=           0
         NMat0=    1 NMatS0=      1 NMatT0=    0 NMatD0=    1 NMtDS0=    0 NMtDT0=    0
 Petite list used in FoFCou.
 Initial guess orbital symmetries:
       Occupied  (A') (A') (A') (A') (A') (A') (A') (A") (A') (A')
                 (A")
       Virtual   (A') (A") (A') (A') (A') (A') (A") (A') (A') (A")
                 (A') (A') (A') (A') (A") (A') (A') (A") (A') (A')
                 (A') (A") (A') (A") (A') (A') (A") (A') (A") (A')
                 (A') (A") (A') (A") (A') (A') (A") (A') (A') (A")
                 (A') (A') (A") (A') (A') (A') (A") (A') (A') (A")
                 (A') (A") (A') (A") (A') (A") (A') (A") (A') (A')
                 (A') (A") (A') (A") (A') (A") (A') (A') (A') (A")
                 (A') (A') (A") (A") (A') (A") (A') (A") (A') (A")
                 (A') (A') (A") (A") (A') (A') (A') (A') (A") (A')
                 (A') (A') (A')
 The electronic state of the initial guess is 1-A'.
 Keep R1 ints in memory in symmetry-blocked form, NReq=22499875.
 Requested convergence on RMS density matrix=1.00D-08 within 128 cycles.
 Requested convergence on MAX density matrix=1.00D-06.
 Requested convergence on             energy=1.00D-06.
 No special actions if energy rises.
 Integral accuracy reduced to 1.0D-05 until final iterations.
 Initial convergence to 1.0D-05 achieved.  Increase integral accuracy.
 SCF Done:  E(RB3LYP) =  -164.856611633     A.U. after   13 cycles
            NFock= 13  Conv=0.54D-08     -V/T= 2.0032

 **********************************************************************

            Population analysis using the SCF Density.

 **********************************************************************

 Orbital symmetries:
       Occupied  (A') (A') (A') (A') (A') (A') (A") (A') (A') (A')
                 (A")
       Virtual   (A') (A") (A') (A') (A') (A') (A") (A') (A') (A")
                 (A') (A') (A') (A') (A") (A') (A') (A") (A') (A')
                 (A") (A') (A') (A") (A') (A') (A") (A') (A') (A")
                 (A') (A") (A') (A") (A') (A') (A") (A') (A') (A")
                 (A') (A') (A") (A') (A') (A') (A") (A') (A') (A")
                 (A') (A") (A') (A") (A') (A") (A') (A") (A') (A')
                 (A') (A") (A') (A") (A') (A") (A') (A') (A') (A")
                 (A') (A') (A") (A") (A') (A") (A') (A") (A') (A")
                 (A') (A') (A") (A") (A') (A') (A') (A") (A') (A')
                 (A') (A') (A')
 The electronic state is 1-A'.
 Alpha  occ. eigenvalues --  -14.50357 -14.39886 -14.37109  -1.16193  -0.99397
 Alpha  occ. eigenvalues --   -0.63491  -0.52803  -0.52568  -0.46686  -0.33821
 Alpha  occ. eigenvalues --   -0.28815
 Alpha virt. eigenvalues --   -0.04375  -0.00345   0.00628   0.15669   0.18246
 Alpha virt. eigenvalues --    0.20212   0.22718   0.23617   0.28497   0.30788
 Alpha virt. eigenvalues --    0.31078   0.37545   0.39131   0.40534   0.40679
 Alpha virt. eigenvalues --    0.61397   0.66928   0.73410   0.80284   0.90615
 Alpha virt. eigenvalues --    0.97730   0.97987   1.05764   1.10774   1.25274
 Alpha virt. eigenvalues --    1.27380   1.33494   1.37362   1.54929   1.55728
 Alpha virt. eigenvalues --    1.60453   1.66327   1.70410   1.72153   1.72553
 Alpha virt. eigenvalues --    1.74785   1.80254   1.88066   2.00697   2.05478
 Alpha virt. eigenvalues --    2.08810   2.22002   2.36855   2.42134   2.51954
 Alpha virt. eigenvalues --    2.85216   3.12129   3.14642   3.23016   3.29137
 Alpha virt. eigenvalues --    3.37781   3.46425   3.54909   3.66275   3.72851
 Alpha virt. eigenvalues --    3.75300   3.80008   3.82114   3.92284   3.98736
 Alpha virt. eigenvalues --    4.24891   4.27705   4.31148   4.38298   4.49183
 Alpha virt. eigenvalues --    4.58256   4.61266   4.69699   4.77274   4.82499
 Alpha virt. eigenvalues --    4.85420   4.92321   4.98576   5.05225   5.07242
 Alpha virt. eigenvalues --    5.08720   5.13471   5.17153   5.31766   5.45663
 Alpha virt. eigenvalues --    5.47433   5.56135   5.56968   5.77299   5.81011
 Alpha virt. eigenvalues --    5.88807   6.16497   6.37012   6.38953   6.54746
 Alpha virt. eigenvalues --    7.12572   7.66419   9.19556
          Condensed to atoms (all electrons):
               1          2          3          4
     1  N    7.041393   0.191572  -0.177797   0.295781
     2  N    0.191572   5.852144   0.559866   0.014153
     3  N   -0.177797   0.559866   6.794799   0.006620
     4  H    0.295781   0.014153   0.006620   0.531275
 Mulliken charges:
               1
     1  N   -0.350949
     2  N    0.382265
     3  N   -0.183488
     4  H    0.152172
 Sum of Mulliken charges =  -0.00000
 Mulliken charges with hydrogens summed into heavy atoms:
               1
     1  N   -0.198777
     2  N    0.382265
     3  N   -0.183488
 Electronic spatial extent (au):  <R**2>=            119.7335
 Charge=             -0.0000 electrons
 Dipole moment (field-independent basis, Debye):
    X=              1.7300    Y=             -0.7059    Z=              0.0000  Tot=              1.8685
 Quadrupole moment (field-independent basis, Debye-Ang):
   XX=            -14.8400   YY=            -19.8210   ZZ=            -17.2713
   XY=             -2.0167   XZ=              0.0000   YZ=              0.0000
 Traceless Quadrupole moment (field-independent basis, Debye-Ang):
   XX=              2.4708   YY=             -2.5102   ZZ=              0.0394
   XY=             -2.0167   XZ=              0.0000   YZ=              0.0000
 Octapole moment (field-independent basis, Debye-Ang**2):
  XXX=              2.9029  YYY=             -3.8621  ZZZ=              0.0000  XYY=              5.0447
  XXY=             -2.3286  XXZ=              0.0000  XZZ=              0.3466  YZZ=              0.5579
  YYZ=              0.0000  XYZ=              0.0000
 Hexadecapole moment (field-independent basis, Debye-Ang**3):
 XXXX=            -17.8285 YYYY=           -123.5034 ZZZZ=            -16.2503 XXXY=              5.5440
 XXXZ=              0.0000 YYYX=              3.6319 YYYZ=              0.0000 ZZZX=              0.0000
 ZZZY=              0.0000 XXYY=            -19.9683 XXZZ=             -6.1184 YYZZ=            -24.1615
 XXYZ=              0.0000 YYXZ=              0.0000 ZZXY=              2.9740
 N-N= 6.195009694610D+01 E-N=-5.092954954434D+02  KE= 1.643266134080D+02
 Symmetry A'   KE= 1.573192523930D+02
 Symmetry A"   KE= 7.007361015013D+00
 Calling FoFJK, ICntrl=      2127 FMM=F ISym2X=1 I1Cent= 0 IOpClX= 0 NMat=1 NMatS=1 NMatT=0.
 ***** Axes restored to original set *****
 -------------------------------------------------------------------
 Center     Atomic                   Forces (Hartrees/Bohr)
 Number     Number              X              Y              Z
 -------------------------------------------------------------------
      1        7           0.000061196    0.000160748   -0.000000000
      2        7          -0.000021877   -0.000241356   -0.000000000
      3        7          -0.000017138    0.000122439   -0.000000000
      4        1          -0.000022180   -0.000041831   -0.000000000
 -------------------------------------------------------------------
 Cartesian Forces:  Max     0.000241356 RMS     0.000093916

 GradGradGradGradGradGradGradGradGradGradGradGradGradGradGradGradGradGrad
 Berny optimization.
 FormGI is forming the generalized inverse of G from B-inverse, IUseBI=4.
 Internal  Forces:  Max     0.000123328 RMS     0.000078670
 Search for a local minimum.
 Step number   1 out of a maximum of   20
 All quantities printed in internal units (Hartrees-Bohrs-Radians)
 Mixed Optimization -- En-DIIS/RFO-DIIS
 Second derivative matrix not updated -- first step.
 The second derivative matrix:
                          R1        R2        R3        A1        A2
           R1           0.89046
           R2           0.00000   0.44800
           R3           0.00000   0.00000   1.53296
           A1           0.00000   0.00000   0.00000   0.16000
           A2           0.00000   0.00000   0.00000   0.00000   0.04926
           A3           0.00000   0.00000   0.00000   0.00000   0.00000
                          A3
           A3           0.04926
 ITU=  0
     Eigenvalues ---    0.04926   0.04926   0.16000   0.44800   0.89046
     Eigenvalues ---    1.53296
 RFO step:  Lambda=-8.31975051D-08 EMin= 4.92559509D-02
 Linear search not attempted -- first point.
 Iteration  1 RMS(Cart)=  0.00024995 RMS(Int)=  0.00000005
 Iteration  2 RMS(Cart)=  0.00000006 RMS(Int)=  0.00000000
 ClnCor:  largest displacement from symmetrization is 2.84D-15 for atom     4.
 Variable       Old X    -DE/DX   Delta X   Delta X   Delta X     New X
                                 (Linear)    (Quad)   (Total)
    R1        2.33376  -0.00012   0.00000  -0.00013  -0.00013   2.33363
    R2        1.92209  -0.00001   0.00000  -0.00002  -0.00002   1.92207
    R3        2.12693   0.00012   0.00000   0.00008   0.00008   2.12701
    A1        1.93089   0.00009   0.00000   0.00056   0.00056   1.93145
    A2        3.28431  -0.00002   0.00000  -0.00040  -0.00040   3.28391
    A3        3.14159  -0.00000   0.00000  -0.00000   0.00000   3.14159
         Item               Value     Threshold  Converged?
 Maximum Force            0.000123     0.000450     YES
 RMS     Force            0.000079     0.000300     YES
 Maximum Displacement     0.000380     0.001800     YES
 RMS     Displacement     0.000250     0.001200     YES
 Predicted change in Energy=-4.159875D-08
 Optimization completed.
    -- Stationary point found.
                           ----------------------------
                           !   Optimized Parameters   !
                           ! (Angstroms and Degrees)  !
 --------------------------                            --------------------------
 ! Name  Definition              Value          Derivative Info.                !
 --------------------------------------------------------------------------------
 ! R1    R(1,2)                  1.235          -DE/DX =   -0.0001              !
 ! R2    R(1,4)                  1.0171         -DE/DX =    0.0                 !
 ! R3    R(2,3)                  1.1255         -DE/DX =    0.0001              !
 ! A1    A(2,1,4)              110.632          -DE/DX =    0.0001              !
 ! A2    L(1,2,3,4,-1)         188.1769         -DE/DX =    0.0                 !
 ! A3    L(1,2,3,4,-2)         180.0            -DE/DX =    0.0                 !
 --------------------------------------------------------------------------------
 GradGradGradGradGradGradGradGradGradGradGradGradGradGradGradGradGradGrad

                          Input orientation:                          
 ---------------------------------------------------------------------
 Center     Atomic      Atomic             Coordinates (Angstroms)
 Number     Number       Type             X           Y           Z
 ---------------------------------------------------------------------
      1          7           0        0.085190   -1.120874    0.000000
      2          7           0        0.000000    0.111155    0.000000
      3          7           0       -0.236553    1.211540    0.000000
      4          1           0        1.059537   -1.412756    0.000000
 ---------------------------------------------------------------------
                    Distance matrix (angstroms):
                    1          2          3          4
     1  N    0.000000
     2  N    1.234971   0.000000
     3  N    2.354501   1.125524   0.000000
     4  H    1.017127   1.856050   2.926906   0.000000
 Stoichiometry    HN3
 Framework group  CS[SG(HN3)]
 Deg. of freedom     5
 Full point group                 CS      NOp   2
 Largest Abelian subgroup         CS      NOp   2
 Largest concise Abelian subgroup C1      NOp   1
                         Standard orientation:                         
 ---------------------------------------------------------------------
 Center     Atomic      Atomic             Coordinates (Angstroms)
 Number     Number       Type             X           Y           Z
 ---------------------------------------------------------------------
      1          7           0        0.085192   -1.120873    0.000000
      2          7           0        0.000000    0.111155    0.000000
      3          7           0       -0.236555    1.211540    0.000000
      4          1           0        1.059539   -1.412754    0.000000
 ---------------------------------------------------------------------
 Rotational constants (GHZ):         623.1414469          12.1878893          11.9540820
 1\1\GINC-GAMBA\FOpt\RB3LYP\Gen\H1N3\IRIKURA\29-Sep-2023\0\\# b3lyp/gen
  opt freq CPHF(Grid=OneStep)\\hydrazoic acid, B3LYP/pcseg-2\\0,1\N,0.0
 8519,-1.120874,0.\N,0.,0.111155,0.\N,-0.236553,1.21154,0.\H,1.059537,-
 1.412756,0.\\Version=ES64L-G16RevB.01\State=1-A'\HF=-164.8566116\RMSD=
 5.370e-09\RMSF=9.392e-05\Dipole=0.6806334,-0.27772,0.\Quadrupole=1.836
 9626,-1.8662861,0.0293234,-1.499402,0.,0.\PG=CS [SG(H1N3)]\\@


 REVOLUTIONS HAVE NEVER LIGHTENED THE BURDEN OF TYRANNY:
 THEY HAVE MERELY SHIFTED IT TO OTHER SHOULDERS.
                                   -- G. B. SHAW (1903)
 Job cpu time:       0 days  0 hours  0 minutes 20.8 seconds.
 Elapsed time:       0 days  0 hours  0 minutes  5.3 seconds.
 File lengths (MBytes):  RWF=     10 Int=      0 D2E=      0 Chk=      2 Scr=      1
 Normal termination of Gaussian 16 at Fri Sep 29 18:46:43 2023.
 Link1:  Proceeding to internal job step number  2.
 ------------------------------------------------------------------
 #N Geom=AllCheck Guess=TCheck SCRF=Check GenChk RB3LYP/ChkBas Freq
 ------------------------------------------------------------------
 1/10=4,29=7,30=1,38=1,40=1/1,3;
 2/12=2,40=1/2;
 3/5=7,6=2,11=2,14=-4,25=1,30=1,67=1,70=2,71=2,74=-5,82=7,116=1,140=1/1,2,3;
 4/5=101/1;
 5/5=2,38=6,98=1/2;
 8/6=4,10=90,11=11/1;
 11/6=1,8=1,9=11,15=111,16=1/1,2,10;
 10/6=1,60=-420/2;
 6/7=2,8=2,9=2,10=2,28=1/1;
 7/8=1,10=1,25=1/1,2,3,16;
 1/10=4,30=1/3;
 99//99;
 Structure from the checkpoint file:  "hn3.chk"
 -----------------------------
 hydrazoic acid, B3LYP/pcseg-2
 -----------------------------
 Charge =  0 Multiplicity = 1
 Redundant internal coordinates found in file.  (old form).
 N,0,0.08519,-1.120874,0.
 N,0,0.,0.111155,0.
 N,0,-0.236553,1.21154,0.
 H,0,1.059537,-1.412756,0.
 Recover connectivity data from disk.

 GradGradGradGradGradGradGradGradGradGradGradGradGradGradGradGradGradGrad
 Berny optimization.
 Initialization pass.
                           ----------------------------
                           !    Initial Parameters    !
                           ! (Angstroms and Degrees)  !
 --------------------------                            --------------------------
 ! Name  Definition              Value          Derivative Info.                !
 --------------------------------------------------------------------------------
 ! R1    R(1,2)                  1.235          calculate D2E/DX2 analytically  !
 ! R2    R(1,4)                  1.0171         calculate D2E/DX2 analytically  !
 ! R3    R(2,3)                  1.1255         calculate D2E/DX2 analytically  !
 ! A1    A(2,1,4)              110.632          calculate D2E/DX2 analytically  !
 ! A2    L(1,2,3,4,-1)         188.1769         calculate D2E/DX2 analytically  !
 ! A3    L(1,2,3,4,-2)         180.0            calculate D2E/DX2 analytically  !
 --------------------------------------------------------------------------------
 Trust Radius=3.00D-01 FncErr=1.00D-07 GrdErr=1.00D-07 EigMax=2.50D+02 EigMin=1.00D-04
 Number of steps in this run=      2 maximum allowed number of steps=      2.
 GradGradGradGradGradGradGradGradGradGradGradGradGradGradGradGradGradGrad

                          Input orientation:                          
 ---------------------------------------------------------------------
 Center     Atomic      Atomic             Coordinates (Angstroms)
 Number     Number       Type             X           Y           Z
 ---------------------------------------------------------------------
      1          7           0        0.085190   -1.120874    0.000000
      2          7           0        0.000000    0.111155    0.000000
      3          7           0       -0.236553    1.211540    0.000000
      4          1           0        1.059537   -1.412756    0.000000
 ---------------------------------------------------------------------
                    Distance matrix (angstroms):
                    1          2          3          4
     1  N    0.000000
     2  N    1.234971   0.000000
     3  N    2.354501   1.125524   0.000000
     4  H    1.017127   1.856050   2.926906   0.000000
 Stoichiometry    HN3
 Framework group  CS[SG(HN3)]
 Deg. of freedom     5
 Full point group                 CS      NOp   2
 Largest Abelian subgroup         CS      NOp   2
 Largest concise Abelian subgroup C1      NOp   1
                         Standard orientation:                         
 ---------------------------------------------------------------------
 Center     Atomic      Atomic             Coordinates (Angstroms)
 Number     Number       Type             X           Y           Z
 ---------------------------------------------------------------------
      1          7           0        0.085192   -1.120873    0.000000
      2          7           0        0.000000    0.111155    0.000000
      3          7           0       -0.236555    1.211540    0.000000
      4          1           0        1.059539   -1.412754    0.000000
 ---------------------------------------------------------------------
 Rotational constants (GHZ):         623.1414469          12.1878893          11.9540820
 Basis read from chk: "hn3.chk" (5D, 7F)
 There are    83 symmetry adapted cartesian basis functions of A'  symmetry.
 There are    37 symmetry adapted cartesian basis functions of A"  symmetry.
 There are    70 symmetry adapted basis functions of A'  symmetry.
 There are    34 symmetry adapted basis functions of A"  symmetry.
   104 basis functions,   171 primitive gaussians,   120 cartesian basis functions
    11 alpha electrons       11 beta electrons
       nuclear repulsion energy        61.9500969461 Hartrees.
 NAtoms=    4 NActive=    4 NUniq=    4 SFac= 1.00D+00 NAtFMM=   60 NAOKFM=F Big=F
 Integral buffers will be    131072 words long.
 Raffenetti 2 integral format.
 Two-electron integral symmetry is turned on.
 One-electron integrals computed using PRISM.
 NBasis=   104 RedAO= T EigKep=  1.96D-04  NBF=    70    34
 NBsUse=   104 1.00D-06 EigRej= -1.00D+00 NBFU=    70    34
 Initial guess from the checkpoint file:  "hn3.chk"
 B after Tr=    -0.000000   -0.000000    0.000000
         Rot=    1.000000   -0.000000    0.000000    0.000000 Ang=   0.00 deg.
 Initial guess orbital symmetries:
       Occupied  (A') (A') (A') (A') (A') (A') (A") (A') (A') (A')
                 (A")
       Virtual   (A') (A") (A') (A') (A') (A') (A") (A') (A') (A")
                 (A') (A') (A') (A') (A") (A') (A') (A") (A') (A')
                 (A") (A') (A') (A") (A') (A') (A") (A') (A') (A")
                 (A') (A") (A') (A") (A') (A') (A") (A') (A') (A")
                 (A') (A') (A") (A') (A') (A') (A") (A') (A') (A")
                 (A') (A") (A') (A") (A') (A") (A') (A") (A') (A')
                 (A') (A") (A') (A") (A') (A") (A') (A') (A') (A")
                 (A') (A') (A") (A") (A') (A") (A') (A") (A') (A")
                 (A') (A') (A") (A") (A') (A') (A') (A") (A') (A')
                 (A') (A') (A')
 Keep R1 ints in memory in symmetry-blocked form, NReq=22499875.
 Requested convergence on RMS density matrix=1.00D-08 within 128 cycles.
 Requested convergence on MAX density matrix=1.00D-06.
 Requested convergence on             energy=1.00D-06.
 No special actions if energy rises.
 SCF Done:  E(RB3LYP) =  -164.856611633     A.U. after    1 cycles
            NFock=  1  Conv=0.26D-08     -V/T= 2.0032
 DoSCS=F DFT=T ScalE2(SS,OS)=  1.000000  1.000000
 Range of M.O.s used for correlation:     1   104
 NBasis=   104 NAE=    11 NBE=    11 NFC=     0 NFV=     0
 NROrb=    104 NOA=    11 NOB=    11 NVA=    93 NVB=    93

 **** Warning!!: The largest alpha MO coefficient is  0.30745666D+02

 Symmetrizing basis deriv contribution to polar:
 IMax=3 JMax=2 DiffMx= 0.00D+00
 G2DrvN: will do     5 centers at a time, making    1 passes.
 Calling FoFCou, ICntrl=  3107 FMM=F I1Cent=   0 AccDes= 0.00D+00.
 End of G2Drv F.D. properties file   721 does not exist.
 End of G2Drv F.D. properties file   722 does not exist.
 End of G2Drv F.D. properties file   788 does not exist.
          IDoAtm=1111
          Differentiating once with respect to electric field.
                with respect to dipole field.
          Differentiating once with respect to nuclear coordinates.
 Keep R1 ints in memory in symmetry-blocked form, NReq=22502519.
          There are    15 degrees of freedom in the 1st order CPHF.  IDoFFX=6 NUNeed=     3.
     12 vectors produced by pass  0 Test12= 6.82D-15 6.67D-09 XBig12= 6.02D+01 5.10D+00.
 AX will form    12 AO Fock derivatives at one time.
     12 vectors produced by pass  1 Test12= 6.82D-15 6.67D-09 XBig12= 2.79D+01 1.48D+00.
     12 vectors produced by pass  2 Test12= 6.82D-15 6.67D-09 XBig12= 4.01D-01 2.15D-01.
     12 vectors produced by pass  3 Test12= 6.82D-15 6.67D-09 XBig12= 2.00D-03 9.16D-03.
     12 vectors produced by pass  4 Test12= 6.82D-15 6.67D-09 XBig12= 4.54D-06 5.10D-04.
     12 vectors produced by pass  5 Test12= 6.82D-15 6.67D-09 XBig12= 1.09D-08 2.28D-05.
      6 vectors produced by pass  6 Test12= 6.82D-15 6.67D-09 XBig12= 1.30D-11 6.88D-07.
      1 vectors produced by pass  7 Test12= 6.82D-15 6.67D-09 XBig12= 1.05D-14 1.99D-08.
 InvSVY:  IOpt=1 It=  1 EMax= 6.66D-16
 Solved reduced A of dimension    79 with    12 vectors.
 Isotropic polarizability for W=    0.000000       23.08 Bohr**3.
 End of Minotr F.D. properties file   721 does not exist.
 End of Minotr F.D. properties file   722 does not exist.
 End of Minotr F.D. properties file   788 does not exist.

 **********************************************************************

            Population analysis using the SCF Density.

 **********************************************************************

 Orbital symmetries:
       Occupied  (A') (A') (A') (A') (A') (A') (A") (A') (A') (A')
                 (A")
       Virtual   (A') (A") (A') (A') (A') (A') (A") (A') (A') (A")
                 (A') (A') (A') (A') (A") (A') (A') (A") (A') (A')
                 (A") (A') (A') (A") (A') (A') (A") (A') (A') (A")
                 (A') (A") (A') (A") (A') (A') (A") (A') (A') (A")
                 (A') (A') (A") (A') (A') (A') (A") (A') (A') (A")
                 (A') (A") (A') (A") (A') (A") (A') (A") (A') (A')
                 (A') (A") (A') (A") (A') (A") (A') (A') (A') (A")
                 (A') (A') (A") (A") (A') (A") (A') (A") (A') (A")
                 (A') (A') (A") (A") (A') (A') (A') (A") (A') (A')
                 (A') (A') (A')
 The electronic state is 1-A'.
 Alpha  occ. eigenvalues --  -14.50357 -14.39886 -14.37109  -1.16193  -0.99397
 Alpha  occ. eigenvalues --   -0.63491  -0.52803  -0.52568  -0.46686  -0.33821
 Alpha  occ. eigenvalues --   -0.28815
 Alpha virt. eigenvalues --   -0.04375  -0.00345   0.00628   0.15669   0.18246
 Alpha virt. eigenvalues --    0.20212   0.22718   0.23617   0.28497   0.30788
 Alpha virt. eigenvalues --    0.31078   0.37545   0.39131   0.40534   0.40679
 Alpha virt. eigenvalues --    0.61397   0.66928   0.73410   0.80284   0.90615
 Alpha virt. eigenvalues --    0.97730   0.97987   1.05764   1.10774   1.25274
 Alpha virt. eigenvalues --    1.27380   1.33494   1.37362   1.54929   1.55728
 Alpha virt. eigenvalues --    1.60453   1.66327   1.70410   1.72153   1.72553
 Alpha virt. eigenvalues --    1.74785   1.80254   1.88066   2.00697   2.05478
 Alpha virt. eigenvalues --    2.08810   2.22002   2.36855   2.42134   2.51954
 Alpha virt. eigenvalues --    2.85216   3.12129   3.14642   3.23016   3.29137
 Alpha virt. eigenvalues --    3.37781   3.46425   3.54909   3.66275   3.72851
 Alpha virt. eigenvalues --    3.75300   3.80008   3.82114   3.92284   3.98736
 Alpha virt. eigenvalues --    4.24891   4.27705   4.31148   4.38298   4.49183
 Alpha virt. eigenvalues --    4.58256   4.61266   4.69699   4.77274   4.82499
 Alpha virt. eigenvalues --    4.85420   4.92321   4.98576   5.05225   5.07242
 Alpha virt. eigenvalues --    5.08720   5.13471   5.17153   5.31766   5.45663
 Alpha virt. eigenvalues --    5.47433   5.56135   5.56968   5.77299   5.81011
 Alpha virt. eigenvalues --    5.88807   6.16497   6.37012   6.38953   6.54746
 Alpha virt. eigenvalues --    7.12572   7.66419   9.19556
          Condensed to atoms (all electrons):
               1          2          3          4
     1  N    7.041394   0.191572  -0.177797   0.295781
     2  N    0.191572   5.852143   0.559866   0.014153
     3  N   -0.177797   0.559866   6.794799   0.006620
     4  H    0.295781   0.014153   0.006620   0.531275
 Mulliken charges:
               1
     1  N   -0.350950
     2  N    0.382266
     3  N   -0.183488
     4  H    0.152172
 Sum of Mulliken charges =  -0.00000
 Mulliken charges with hydrogens summed into heavy atoms:
               1
     1  N   -0.198778
     2  N    0.382266
     3  N   -0.183488
 APT charges:
               1
     1  N   -0.656397
     2  N    0.793399
     3  N   -0.411710
     4  H    0.274708
 Sum of APT charges =   0.00000
 APT charges with hydrogens summed into heavy atoms:
               1
     1  N   -0.381690
     2  N    0.793399
     3  N   -0.411710
 Electronic spatial extent (au):  <R**2>=            119.7335
 Charge=             -0.0000 electrons
 Dipole moment (field-independent basis, Debye):
    X=              1.7300    Y=             -0.7059    Z=              0.0000  Tot=              1.8685
 Quadrupole moment (field-independent basis, Debye-Ang):
   XX=            -14.8400   YY=            -19.8210   ZZ=            -17.2713
   XY=             -2.0167   XZ=              0.0000   YZ=              0.0000
 Traceless Quadrupole moment (field-independent basis, Debye-Ang):
   XX=              2.4708   YY=             -2.5102   ZZ=              0.0394
   XY=             -2.0167   XZ=              0.0000   YZ=              0.0000
 Octapole moment (field-independent basis, Debye-Ang**2):
  XXX=              2.9029  YYY=             -3.8621  ZZZ=              0.0000  XYY=              5.0447
  XXY=             -2.3286  XXZ=              0.0000  XZZ=              0.3466  YZZ=              0.5579
  YYZ=              0.0000  XYZ=              0.0000
 Hexadecapole moment (field-independent basis, Debye-Ang**3):
 XXXX=            -17.8285 YYYY=           -123.5034 ZZZZ=            -16.2503 XXXY=              5.5440
 XXXZ=              0.0000 YYYX=              3.6319 YYYZ=              0.0000 ZZZX=              0.0000
 ZZZY=              0.0000 XXYY=            -19.9683 XXZZ=             -6.1184 YYZZ=            -24.1615
 XXYZ=              0.0000 YYXZ=              0.0000 ZZXY=              2.9740
 N-N= 6.195009694610D+01 E-N=-5.092954982163D+02  KE= 1.643266148773D+02
 Symmetry A'   KE= 1.573192534489D+02
 Symmetry A"   KE= 7.007361428322D+00
  Exact polarizability:  15.609  -4.891  40.315   0.000   0.000  13.303
 Approx polarizability:  21.905 -11.351  89.868  -0.000  -0.000  17.456
 Calling FoFJK, ICntrl=    100127 FMM=F ISym2X=1 I1Cent= 0 IOpClX= 0 NMat=1 NMatS=1 NMatT=0.
 Full mass-weighted force constant matrix:
 Low frequencies ---   -4.4879    0.0011    0.0013    0.0016    2.9001   30.4790
 Low frequencies ---  544.1990  610.2678 1181.6752
 Diagonal vibrational polarizability:
        0.3089777       7.6964778       0.0143204
 Harmonic frequencies (cm**-1), IR intensities (KM/Mole), Raman scattering
 activities (A**4/AMU), depolarization ratios for plane and unpolarized
 incident light, reduced masses (AMU), force constants (mDyne/A),
 and normal coordinates:
                      1                      2                      3
                     A'                     A"                     A'
 Frequencies --    544.1989               610.2677              1181.6752
 Red. masses --      5.1482                 7.1570                 2.1226
 Frc consts  --      0.8983                 1.5704                 1.7463
 IR Inten    --     15.8840                 0.1982               224.5937
  Atom  AN      X      Y      Z        X      Y      Z        X      Y      Z
     1   7    -0.17   0.03  -0.00     0.00  -0.00  -0.21    -0.08  -0.24   0.00
     2   7     0.46   0.09   0.00    -0.00  -0.00   0.58     0.09   0.08  -0.00
     3   7    -0.26  -0.06  -0.00     0.00   0.00  -0.31    -0.03   0.09   0.00
     4   1    -0.40  -0.72  -0.00     0.00   0.00  -0.73     0.33   0.90   0.00
                      4                      5                      6
                     A'                     A'                     A'
 Frequencies --   1301.8824              2271.3308              3491.8485
 Red. masses --      2.4697                12.1269                 1.0739
 Frc consts  --      2.4662                36.8605                 7.7149
 IR Inten    --      1.1506               403.7830                49.4053
  Atom  AN      X      Y      Z        X      Y      Z        X      Y      Z
     1   7    -0.10   0.22   0.00     0.04  -0.15   0.00    -0.07   0.03  -0.00
     2   7     0.06  -0.07   0.00    -0.16   0.71   0.00    -0.00  -0.00  -0.00
     3   7     0.03  -0.22   0.00     0.12  -0.53   0.00     0.00  -0.00  -0.00
     4   1     0.13   0.93   0.00    -0.06  -0.38   0.00     0.94  -0.32  -0.00

 -------------------
 - Thermochemistry -
 -------------------
 Temperature   298.150 Kelvin.  Pressure   1.00000 Atm.
 Atom     1 has atomic number  7 and mass  14.00307
 Atom     2 has atomic number  7 and mass  14.00307
 Atom     3 has atomic number  7 and mass  14.00307
 Atom     4 has atomic number  1 and mass   1.00783
 Molecular mass:    43.01705 amu.
 Principal axes and moments of inertia in atomic units:
                           1         2         3
     Eigenvalues --     2.89620 148.07660 150.97280
           X           -0.17036   0.98538   0.00000
           Y            0.98538   0.17036   0.00000
           Z           -0.00000   0.00000   1.00000
 This molecule is an asymmetric top.
 Rotational symmetry number  1.
 Rotational temperatures (Kelvin)     29.90607     0.58493     0.57371
 Rotational constants (GHZ):         623.14145    12.18789    11.95408
 Zero-point vibrational energy      56231.7 (Joules/Mol)
                                   13.43970 (Kcal/Mol)
 Warning -- explicit consideration of   2 degrees of freedom as
           vibrations may cause significant error
 Vibrational temperatures:    782.98   878.04  1700.17  1873.12  3267.94
          (Kelvin)           5023.99
 
 Zero-point correction=                           0.021418 (Hartree/Particle)
 Thermal correction to Energy=                    0.024627
 Thermal correction to Enthalpy=                  0.025571
 Thermal correction to Gibbs Free Energy=        -0.001547
 Sum of electronic and zero-point Energies=           -164.835194
 Sum of electronic and thermal Energies=              -164.831984
 Sum of electronic and thermal Enthalpies=            -164.831040
 Sum of electronic and thermal Free Energies=         -164.858158
 
                     E (Thermal)             CV                S
                      KCal/Mol        Cal/Mol-Kelvin    Cal/Mol-Kelvin
 Total                   15.454              8.493             57.074
 Electronic               0.000              0.000              0.000
 Translational            0.889              2.981             37.203
 Rotational               0.889              2.981             18.810
 Vibrational             13.676              2.531              1.061
 Vibration     1          0.899              1.152              0.556
 Vibration     2          0.969              1.010              0.432
                       Q            Log10(Q)             Ln(Q)
 Total Bot       0.514472D+01          0.711362          1.637971
 Total V=0       0.365365D+11         10.562727         24.321578
 Vib (Bot)       0.161063D-09         -9.793005        -22.549228
 Vib (Bot)    1  0.289976D+00         -0.537638         -1.237956
 Vib (Bot)    2  0.242091D+00         -0.616021         -1.418440
 Vib (V=0)       0.114383D+01          0.058360          0.134379
 Vib (V=0)    1  0.107800D+01          0.032620          0.075109
 Vib (V=0)    2  0.105553D+01          0.023469          0.054038
 Electronic      0.100000D+01          0.000000          0.000000
 Translational   0.110896D+08          7.044915         16.221516
 Rotational      0.288040D+04          3.459452          7.965683
 ***** Axes restored to original set *****
 -------------------------------------------------------------------
 Center     Atomic                   Forces (Hartrees/Bohr)
 Number     Number              X              Y              Z
 -------------------------------------------------------------------
      1        7           0.000061183    0.000160844   -0.000000000
      2        7          -0.000021906   -0.000241397   -0.000000000
      3        7          -0.000017121    0.000122394   -0.000000000
      4        1          -0.000022156   -0.000041841   -0.000000000
 -------------------------------------------------------------------
 Cartesian Forces:  Max     0.000241397 RMS     0.000093933
 FormGI is forming the generalized inverse of G from B-inverse, IUseBI=4.

 GradGradGradGradGradGradGradGradGradGradGradGradGradGradGradGradGradGrad
 Berny optimization.
 Internal  Forces:  Max     0.000123281 RMS     0.000078680
 Search for a local minimum.
 Step number   1 out of a maximum of    2
 All quantities printed in internal units (Hartrees-Bohrs-Radians)
 Second derivative matrix not updated -- analytic derivatives used.
 The second derivative matrix:
                          R1        R2        R3        A1        A2
           R1           0.66475
           R2           0.00254   0.43438
           R3           0.08566  -0.01218   1.22878
           A1           0.10972   0.03447  -0.00894   0.18550
           A2          -0.03798  -0.00254  -0.01222  -0.01534   0.15056
           A3           0.00000  -0.00000   0.00000   0.00000  -0.00000
                          A3
           A3           0.02507
 ITU=  0
     Eigenvalues ---    0.02507   0.14398   0.16052   0.43753   0.67993
     Eigenvalues ---    1.24200
 Angle between quadratic step and forces=  38.98 degrees.
 Linear search not attempted -- first point.
 Iteration  1 RMS(Cart)=  0.00030999 RMS(Int)=  0.00000010
 Iteration  2 RMS(Cart)=  0.00000009 RMS(Int)=  0.00000000
 ClnCor:  largest displacement from symmetrization is 3.47D-15 for atom     4.
 Variable       Old X    -DE/DX   Delta X   Delta X   Delta X     New X
                                 (Linear)    (Quad)   (Total)
    R1        2.33376  -0.00012   0.00000  -0.00031  -0.00031   2.33345
    R2        1.92209  -0.00001   0.00000  -0.00007  -0.00007   1.92202
    R3        2.12693   0.00012   0.00000   0.00012   0.00012   2.12706
    A1        1.93089   0.00009   0.00000   0.00067   0.00067   1.93157
    A2        3.28431  -0.00002   0.00000  -0.00013  -0.00013   3.28418
    A3        3.14159   0.00000   0.00000  -0.00000   0.00000   3.14159
         Item               Value     Threshold  Converged?
 Maximum Force            0.000123     0.000450     YES
 RMS     Force            0.000079     0.000300     YES
 Maximum Displacement     0.000528     0.001800     YES
 RMS     Displacement     0.000310     0.001200     YES
 Predicted change in Energy=-5.741956D-08
 Optimization completed.
    -- Stationary point found.
                           ----------------------------
                           !   Optimized Parameters   !
                           ! (Angstroms and Degrees)  !
 --------------------------                            --------------------------
 ! Name  Definition              Value          Derivative Info.                !
 --------------------------------------------------------------------------------
 ! R1    R(1,2)                  1.235          -DE/DX =   -0.0001              !
 ! R2    R(1,4)                  1.0171         -DE/DX =    0.0                 !
 ! R3    R(2,3)                  1.1255         -DE/DX =    0.0001              !
 ! A1    A(2,1,4)              110.632          -DE/DX =    0.0001              !
 ! A2    L(1,2,3,4,-1)         188.1769         -DE/DX =    0.0                 !
 ! A3    L(1,2,3,4,-2)         180.0            -DE/DX =    0.0                 !
 --------------------------------------------------------------------------------
 GradGradGradGradGradGradGradGradGradGradGradGradGradGradGradGradGradGrad


 ----------------------------------------------------------------------

 Electric dipole moment (input orientation):
 (Debye = 10**-18 statcoulomb cm , SI units = C m)
                  (au)            (Debye)         (10**-30 SI)
   Tot        0.735113D+00      0.186847D+01      0.623255D+01
   x          0.680634D+00      0.173000D+01      0.577065D+01
   y         -0.277720D+00     -0.705895D+00     -0.235461D+01
   z          0.000000D+00      0.000000D+00      0.000000D+00

 Dipole polarizability, Alpha (input orientation).
 (esu units = cm**3 , SI units = C**2 m**2 J**-1)
 Alpha(0;0):
               (au)            (10**-24 esu)      (10**-40 SI)
   iso        0.230756D+02      0.341945D+01      0.380466D+01
   aniso      0.272847D+02      0.404317D+01      0.449863D+01
   xx         0.156089D+02      0.231299D+01      0.257355D+01
   yx        -0.489066D+01     -0.724721D+00     -0.806361D+00
   yy         0.403152D+02      0.597410D+01      0.664708D+01
   zx         0.000000D+00      0.000000D+00      0.000000D+00
   zy         0.000000D+00      0.000000D+00      0.000000D+00
   zz         0.133028D+02      0.197127D+01      0.219333D+01

 ----------------------------------------------------------------------

 Dipole orientation:
     7         -0.71793875         -1.75951549          0.94927517
     7          0.07347525          0.18007225         -0.07935634
     7          0.73704545          1.80634196         -1.27884052
     1         -0.64808069         -1.58830823          2.86245131

 Electric dipole moment (dipole orientation):
 (Debye = 10**-18 statcoulomb cm , SI units = C m)
                  (au)            (Debye)         (10**-30 SI)
   Tot        0.735113D+00      0.186847D+01      0.623255D+01
   x          0.000000D+00      0.000000D+00      0.000000D+00
   y          0.000000D+00      0.000000D+00      0.000000D+00
   z          0.735113D+00      0.186847D+01      0.623255D+01

 Dipole polarizability, Alpha (dipole orientation).
 (esu units = cm**3 , SI units = C**2 m**2 J**-1)
 Alpha(0;0):
               (au)            (10**-24 esu)      (10**-40 SI)
   iso        0.230756D+02      0.341945D+01      0.380466D+01
   aniso      0.272847D+02      0.404317D+01      0.449863D+01
   xx         0.161666D+02      0.239564D+01      0.266551D+01
   yx         0.701852D+01      0.104004D+01      0.115720D+01
   yy         0.305037D+02      0.452018D+01      0.502938D+01
   zx        -0.458518D+01     -0.679453D+00     -0.755994D+00
   zy        -0.112373D+02     -0.166520D+01     -0.185278D+01
   zz         0.225566D+02      0.334254D+01      0.371908D+01

 ----------------------------------------------------------------------
 1\1\GINC-GAMBA\Freq\RB3LYP\Gen\H1N3\IRIKURA\29-Sep-2023\0\\#N Geom=All
 Check Guess=TCheck SCRF=Check GenChk RB3LYP/ChkBas Freq\\hydrazoic aci
 d, B3LYP/pcseg-2\\0,1\N,0.08519,-1.120874,0.\N,0.,0.111155,0.\N,-0.236
 553,1.21154,0.\H,1.059537,-1.412756,0.\\Version=ES64L-G16RevB.01\State
 =1-A'\HF=-164.8566116\RMSD=2.567e-09\RMSF=9.393e-05\ZeroPoint=0.021417
 5\Thermal=0.0246272\Dipole=0.6806336,-0.2777204,0.\DipoleDeriv=-0.0913
 762,0.1241496,0.,0.2878869,-1.4702645,0.,0.,0.,-0.4075509,0.0918651,-0
 .3413504,0.,-0.2612621,2.122958,0.,0.,0.,0.1653744,-0.1324275,0.227822
 7,0.,0.0644679,-0.9959985,0.,0.,0.,-0.106703,0.1319386,-0.0106219,0.,-
 0.0910927,0.343305,0.,0.,0.,0.3488795\Polar=15.6088513,-4.8906585,40.3
 152233,0.,0.,13.3027954\Quadrupole=1.8369636,-1.8662877,0.0293241,-1.4
 994022,0.,0.\PG=CS [SG(H1N3)]\NImag=0\\0.46905877,-0.18734732,0.640907
 74,0.,0.,0.01762963,-0.10759453,0.04436303,0.,0.22714213,0.09339422,-0
 .50752615,0.,-0.32704068,1.65809232,0.,0.,-0.04741438,0.,0.,0.12800671
 ,0.03002861,0.00830160,0.,-0.11593680,0.23764325,0.,0.08367160,0.02449
 690,-0.09365920,0.,0.22600706,-1.09161541,0.,-0.24042275,1.17832834,0.
 ,0.,0.02554103,0.,0.,-0.06900674,0.,0.,0.03720344,-0.39149284,0.134682
 69,0.,-0.00361080,-0.00399679,0.,0.00223659,-0.01008121,0.,0.39286705,
 0.06945620,-0.03972238,0.,0.05667060,-0.05895075,0.,-0.00552211,0.0069
 4627,0.,-0.12060469,0.09172687,0.,0.,0.00424372,0.,0.,-0.01158558,0.,0
 .,0.00626227,0.,0.,0.00107959\\-0.00006118,-0.00016084,0.,0.00002191,0
 .00024140,0.,0.00001712,-0.00012239,0.,0.00002216,0.00004184,0.\\\@


 DON'T WORRY CHARLIE BROWN...WE LEARN MORE FROM LOSING 
 THAN WE DO FROM WINNING.
 THEN THAT MAKES ME THE SMARTEST PERSON IN THE WORLD...
 CHARLES SCHULZ 'PEANUTS'
 Job cpu time:       0 days  0 hours  1 minutes 42.7 seconds.
 Elapsed time:       0 days  0 hours  0 minutes 25.7 seconds.
 File lengths (MBytes):  RWF=     10 Int=      0 D2E=      0 Chk=      2 Scr=      1
 Normal termination of Gaussian 16 at Fri Sep 29 18:47:09 2023.
 AtFile(1): ccpvtz-f12.gbs
            -H     0
            S    3   1.00
                 82.6400000              0.0020060
                 12.4100000              0.0153430
                  2.8240000              0.0755790
            S    1   1.00
                  0.7977000              1.0000000
            S    1   1.00
                  0.2581000              1.0000000
            S    1   1.00
                  0.0898900              1.0000000
            P    1   1.00
                  1.5513000              1.0000000
            P    1   1.00
                  0.5580000              1.0000000
            P    1   1.00
                  0.2007000              1.0000000
            D    1   1.00
                  0.4648000              1.0000000
            ****
            -He     0
            S    4   1.00
                528.5000000              0.0009400
                 79.3100000              0.0072140
                 18.0500000              0.0359750
                  5.0850000              0.1277820
            S    1   1.00
                  1.6090000              1.0000000
            S    1   1.00
                  0.5363000              1.0000000
            S    1   1.00
                  0.1833000              1.0000000
            S    1   1.00
                  0.0481900              1.0000000
            P    1   1.00
                  3.7026000              1.0000000
            P    1   1.00
                  1.2284000              1.0000000
            P    1   1.00
                  0.4075000              1.0000000
            D    1   1.00
                  0.6525000              1.0000000
            ****
            -Li     0
            S    9   1.00
               6601.0000000              0.0001170
                989.7000000              0.0009110
                225.7000000              0.0047280
                 64.2900000              0.0191970
                 21.1800000              0.0630470
                  7.7240000              0.1632080
                  3.0030000              0.3148270
                  1.2120000              0.3939360
                  0.4930000              0.1969180
            S    9   1.00
               6601.0000000             -0.0000180
                989.7000000             -0.0001420
                225.7000000             -0.0007410
                 64.2900000             -0.0030200
                 21.1800000             -0.0101230
                  7.7240000             -0.0270940
                  3.0030000             -0.0573590
                  1.2120000             -0.0938950
                  0.4930000             -0.1210910
            S    1   1.00
                  0.0951500              1.0000000
            S    1   1.00
                  0.0479100              1.0000000
            S    1   1.00
                  0.0222000              1.0000000
            S    1   1.00
                  0.0064000              1.0000000
            P    2   1.00
                  6.2500000              0.0033880
                  1.3700000              0.0193160
            P    1   1.00
                  0.3672000              1.0000000
            P    1   1.00
                  0.1192000              1.0000000
            P    1   1.00
                  0.0447400              1.0000000
            P    1   1.00
                  0.0179500              1.0000000
            P    1   1.00
                  0.0075000              1.0000000
            D    1   1.00
                  0.2351180              1.0000000
            D    1   1.00
                  0.1194040              1.0000000
            D    1   1.00
                  0.0606390              1.0000000
            F    1   1.00
                  0.1637750              1.0000000
            F    1   1.00
                  0.0759100              1.0000000
            ****
            -Be     0
            S    9   1.00
              14630.0000000              0.0000920
               2191.0000000              0.0007130
                498.2000000              0.0037350
                140.9000000              0.0154680
                 45.8600000              0.0528740
                 16.4700000              0.1456940
                  6.3190000              0.3026810
                  2.5350000              0.4049360
                  1.0350000              0.2223870
            S    9   1.00
              14630.0000000             -0.0000170
               2191.0000000             -0.0001300
                498.2000000             -0.0006790
                140.9000000             -0.0028570
                 45.8600000             -0.0098130
                 16.4700000             -0.0286090
                  6.3190000             -0.0637600
                  2.5350000             -0.1172310
                  1.0350000             -0.1212020
            S    1   1.00
                  0.2528000              1.0000000
            S    1   1.00
                  0.1052000              1.0000000
            S    1   1.00
                  0.0426100              1.0000000
            S    1   1.00
                  0.0141000              1.0000000
            P    2   1.00
                 14.0300000              0.0040990
                  3.1680000              0.0256260
            P    1   1.00
                  0.9024000              1.0000000
            P    1   1.00
                  0.3036000              1.0000000
            P    1   1.00
                  0.1130000              1.0000000
            P    1   1.00
                  0.0428600              1.0000000
            P    1   1.00
                  0.0084000              1.0000000
            D    1   1.00
                  0.4670460              1.0000000
            D    1   1.00
                  0.2205970              1.0000000
            D    1   1.00
                  0.1041940              1.0000000
            F    1   1.00
                  0.3166400              1.0000000
            F    1   1.00
                  0.1457880              1.0000000
            ****
            -B     0
            S    9   1.00
              23870.0000000              0.0000880
               3575.0000000              0.0006870
                812.8000000              0.0036000
                229.7000000              0.0149490
                 74.6900000              0.0514350
                 26.8100000              0.1433020
                 10.3200000              0.3009350
                  4.1780000              0.4035260
                  1.7270000              0.2253400
            S    9   1.00
              23870.0000000             -0.0000180
               3575.0000000             -0.0001390
                812.8000000             -0.0007250
                229.7000000             -0.0030630
                 74.6900000             -0.0105810
                 26.8100000             -0.0313650
                 10.3200000             -0.0710120
                  4.1780000             -0.1321030
                  1.7270000             -0.1230720
            S    1   1.00
                  0.4704000              1.0000000
            S    1   1.00
                  0.1896000              1.0000000
            S    1   1.00
                  0.0739400              1.0000000
            S    1   1.00
                  0.0272100              1.0000000
            P    2   1.00
                 22.2600000              0.0050950
                  5.0580000              0.0332060
            P    1   1.00
                  1.4870000              1.0000000
            P    1   1.00
                  0.5071000              1.0000000
            P    1   1.00
                  0.1812000              1.0000000
            P    1   1.00
                  0.0646300              1.0000000
            P    1   1.00
                  0.0187800              1.0000000
            D    1   1.00
                  1.4403000              1.0000000
            D    1   1.00
                  0.5333000              1.0000000
            D    1   1.00
                  0.1975000              1.0000000
            F    1   1.00
                  0.8479000              1.0000000
            F    1   1.00
                  0.2484000              1.0000000
            ****
            -C     0
            S    9   1.00
              33980.0000000              0.0000910
               5089.0000000              0.0007040
               1157.0000000              0.0036930
                326.6000000              0.0153600
                106.1000000              0.0529290
                 38.1100000              0.1470430
                 14.7500000              0.3056310
                  6.0350000              0.3993450
                  2.5300000              0.2170510
            S    9   1.00
              33980.0000000             -0.0000190
               5089.0000000             -0.0001510
               1157.0000000             -0.0007850
                326.6000000             -0.0033240
                106.1000000             -0.0115120
                 38.1100000             -0.0341600
                 14.7500000             -0.0771730
                  6.0350000             -0.1414930
                  2.5300000             -0.1180190
            S    1   1.00
                  0.7355000              1.0000000
            S    1   1.00
                  0.2905000              1.0000000
            S    1   1.00
                  0.1111000              1.0000000
            S    1   1.00
                  0.0414500              1.0000000
            P    2   1.00
                 34.5100000              0.0053780
                  7.9150000              0.0361320
            P    1   1.00
                  2.3680000              1.0000000
            P    1   1.00
                  0.8132000              1.0000000
            P    1   1.00
                  0.2890000              1.0000000
            P    1   1.00
                  0.1007000              1.0000000
            P    1   1.00
                  0.0321800              1.0000000
            D    1   1.00
                  2.2805000              1.0000000
            D    1   1.00
                  0.7834000              1.0000000
            D    1   1.00
                  0.2691000              1.0000000
            F    1   1.00
                  1.0371000              1.0000000
            F    1   1.00
                  0.3459000              1.0000000
            ****
            -N     0
            S    9   1.00
              45840.0000000              0.0000920
               6868.0000000              0.0007170
               1563.0000000              0.0037490
                442.4000000              0.0155320
                144.3000000              0.0531460
                 52.1800000              0.1467870
                 20.3400000              0.3046630
                  8.3810000              0.3976840
                  3.5290000              0.2176410
            S    9   1.00
              45840.0000000             -0.0000200
               6868.0000000             -0.0001590
               1563.0000000             -0.0008240
                442.4000000             -0.0034780
                144.3000000             -0.0119660
                 52.1800000             -0.0353880
                 20.3400000             -0.0800770
                  8.3810000             -0.1467220
                  3.5290000             -0.1163600
            S    1   1.00
                  1.0540000              1.0000000
            S    1   1.00
                  0.4118000              1.0000000
            S    1   1.00
                  0.1552000              1.0000000
            S    1   1.00
                  0.0546400              1.0000000
            P    2   1.00
                 49.3300000              0.0055330
                 11.3700000              0.0379620
            P    1   1.00
                  3.4350000              1.0000000
            P    1   1.00
                  1.1820000              1.0000000
            P    1   1.00
                  0.4173000              1.0000000
            P    1   1.00
                  0.1428000              1.0000000
            P    1   1.00
                  0.0440200              1.0000000
            D    1   1.00
                  3.0521000              1.0000000
            D    1   1.00
                  1.0393000              1.0000000
            D    1   1.00
                  0.3539000              1.0000000
            F    1   1.00
[...]
  
 This software contains proprietary and confidential information,
 including trade secrets, belonging to Gaussian, Inc.
  
 This software is provided under written license and may be
 used, copied, transmitted, or stored only in accord with that
 written license.
  
 The following legend is applicable only to US Government
 contracts under FAR:
  
                    RESTRICTED RIGHTS LEGEND
  
 Use, reproduction and disclosure by the US Government is
 subject to restrictions as set forth in subparagraphs (a)
 and (c) of the Commercial Computer Software - Restricted
 Rights clause in FAR 52.227-19.
  
 Gaussian, Inc.
 340 Quinnipiac St., Bldg. 40, Wallingford CT 06492
  
  
 ---------------------------------------------------------------
 Warning -- This program may not be used in any manner that
 competes with the business of Gaussian, Inc. or will provide
 assistance to any competitor of Gaussian, Inc.  The licensee
 of this program is prohibited from giving any competitor of
 Gaussian, Inc. access to this program.  By using this program,
 the user acknowledges that Gaussian, Inc. is engaged in the
 business of creating and licensing software in the field of
 computational chemistry and represents and warrants to the
 licensee that it is not a competitor of Gaussian, Inc. and that
 it will not use this program in any manner prohibited above.
 ---------------------------------------------------------------
  

 Cite this work as:
 Gaussian 16, Revision B.01,
 M. J. Frisch, G. W. Trucks, H. B. Schlegel, G. E. Scuseria, 
 M. A. Robb, J. R. Cheeseman, G. Scalmani, V. Barone, 
 G. A. Petersson, H. Nakatsuji, X. Li, M. Caricato, A. V. Marenich, 
 J. Bloino, B. G. Janesko, R. Gomperts, B. Mennucci, H. P. Hratchian, 
 J. V. Ortiz, A. F. Izmaylov, J. L. Sonnenberg, D. Williams-Young, 
 F. Ding, F. Lipparini, F. Egidi, J. Goings, B. Peng, A. Petrone, 
 T. Henderson, D. Ranasinghe, V. G. Zakrzewski, J. Gao, N. Rega, 
 G. Zheng, W. Liang, M. Hada, M. Ehara, K. Toyota, R. Fukuda, 
 J. Hasegawa, M. Ishida, T. Nakajima, Y. Honda, O. Kitao, H. Nakai, 
 T. Vreven, K. Throssell, J. A. Montgomery, Jr., J. E. Peralta, 
 F. Ogliaro, M. J. Bearpark, J. J. Heyd, E. N. Brothers, K. N. Kudin, 
 V. N. Staroverov, T. A. Keith, R. Kobayashi, J. Normand, 
 K. Raghavachari, A. P. Rendell, J. C. Burant, S. S. Iyengar, 
 J. Tomasi, M. Cossi, J. M. Millam, M. Klene, C. Adamo, R. Cammi, 
 J. W. Ochterski, R. L. Martin, K. Morokuma, O. Farkas, 
 J. B. Foresman, and D. J. Fox, Gaussian, Inc., Wallingford CT, 2016.
 
 ******************************************
 Gaussian 16:  ES64L-G16RevB.01 20-Dec-2017
                29-Sep-2023 
 ******************************************
 %chk=hn3.chk
 %mem=500mw
 %nprocs=4
 Will use up to    4 processors via shared memory.
 ---------------------------------
 # rohf/gen geom=check guess=check
 ---------------------------------
 1/29=2,38=1,172=1/1;
 2/12=2,40=1/2;
 3/5=7,11=2,14=-4,25=1,30=1,116=101/1,2,3;
 4/5=1/1;
 5/5=2,38=6/2;
 6/7=2,8=2,9=2,10=2,28=1/1;
 99/5=1,9=1/99;
 --------------------------------
 hydrazoic acid, ROHF/cc-pVTZ-F12
 --------------------------------
 Structure from the checkpoint file:  "hn3.chk"
 Charge =  0 Multiplicity = 1
 Redundant internal coordinates found in file.  (old form).
 N,0,0.08519,-1.120874,0.
 N,0,0.,0.111155,0.
 N,0,-0.236553,1.21154,0.
 H,0,1.059537,-1.412756,0.
 Recover connectivity data from disk.
                           ----------------------------
                           !    Current Parameters    !
                           ! (Angstroms and Degrees)  !
 --------------------------                            --------------------------
 ! Name  Definition              Value                                          !
 --------------------------------------------------------------------------------
 ! R1    R(1,2)                  1.235                                          !
 ! R2    R(1,4)                  1.0171                                         !
 ! R3    R(2,3)                  1.1255                                         !
 ! A1    A(2,1,4)              110.632                                          !
 ! A2    L(1,2,3,4,-1)         188.1769                                         !
 ! A3    L(1,2,3,4,-2)         180.0                                            !
 --------------------------------------------------------------------------------
                          Input orientation:                          
 ---------------------------------------------------------------------
 Center     Atomic      Atomic             Coordinates (Angstroms)
 Number     Number       Type             X           Y           Z
 ---------------------------------------------------------------------
      1          7           0        0.085190   -1.120874    0.000000
      2          7           0        0.000000    0.111155    0.000000
      3          7           0       -0.236553    1.211540    0.000000
      4          1           0        1.059537   -1.412756    0.000000
 ---------------------------------------------------------------------
                    Distance matrix (angstroms):
                    1          2          3          4
     1  N    0.000000
     2  N    1.234971   0.000000
     3  N    2.354501   1.125524   0.000000
     4  H    1.017127   1.856050   2.926906   0.000000
 Stoichiometry    HN3
 Framework group  CS[SG(HN3)]
 Deg. of freedom     5
 Full point group                 CS      NOp   2
 Largest Abelian subgroup         CS      NOp   2
 Largest concise Abelian subgroup C1      NOp   1
                         Standard orientation:                         
 ---------------------------------------------------------------------
 Center     Atomic      Atomic             Coordinates (Angstroms)
 Number     Number       Type             X           Y           Z
 ---------------------------------------------------------------------
      1          7           0        0.085192   -1.120873    0.000000
      2          7           0        0.000000    0.111155    0.000000
      3          7           0       -0.236555    1.211540    0.000000
      4          1           0        1.059539   -1.412754    0.000000
 ---------------------------------------------------------------------
 Rotational constants (GHZ):         623.1414469          12.1878893          11.9540820
 General basis read from cards:  (5D, 7F)
 There are   140 symmetry adapted cartesian basis functions of A'  symmetry.
 There are    65 symmetry adapted cartesian basis functions of A"  symmetry.
 There are   118 symmetry adapted basis functions of A'  symmetry.
 There are    59 symmetry adapted basis functions of A"  symmetry.
   177 basis functions,   255 primitive gaussians,   205 cartesian basis functions
    11 alpha electrons       11 beta electrons
       nuclear repulsion energy        61.9500969461 Hartrees.
 NAtoms=    4 NActive=    4 NUniq=    4 SFac= 1.00D+00 NAtFMM=   60 NAOKFM=F Big=F
 Integral buffers will be    131072 words long.
 Raffenetti 2 integral format.
 Two-electron integral symmetry is turned on.
 One-electron integrals computed using PRISM.
 NBasis=   177 RedAO= T EigKep=  5.91D-05  NBF=   118    59
 NBsUse=   177 1.00D-06 EigRej= -1.00D+00 NBFU=   118    59
 Initial guess from the checkpoint file:  "hn3.chk"
 B after Tr=    -0.000000    0.000000    0.000000
         Rot=    1.000000    0.000000    0.000000    0.000000 Ang=   0.00 deg.
 Initial guess orbital symmetries:
       Occupied  (A') (A') (A') (A') (A') (A') (A") (A') (A') (A')
                 (A")
       Virtual   (A') (A") (A') (A') (A') (A') (A") (A') (A') (A")
                 (A') (A') (A') (A') (A") (A') (A') (A") (A') (A')
                 (A") (A') (A') (A") (A') (A') (A") (A') (A') (A")
                 (A') (A") (A') (A") (A') (A') (A") (A') (A') (A")
                 (A') (A') (A") (A') (A') (A') (A") (A') (A') (A")
                 (A') (A") (A') (A") (A') (A") (A') (A") (A') (A')
                 (A') (A") (A') (A") (A') (A") (A') (A') (A') (A")
                 (A') (A') (A") (A") (A') (A") (A') (A") (A') (A")
                 (A') (A') (A") (A") (A') (A') (A') (A") (A') (A')
                 (A') (A') (A') (A') (A') (A') (A') (A') (A') (A')
                 (A') (A') (A') (A') (A') (A') (A') (A') (A') (A')
                 (A') (A') (A') (A') (A') (A') (A') (A') (A') (A')
                 (A') (A') (A') (A') (A') (A') (A') (A') (A') (A')
                 (A') (A') (A') (A') (A') (A') (A') (A') (A') (A')
                 (A') (A") (A") (A") (A") (A") (A") (A") (A") (A")
                 (A") (A") (A") (A") (A") (A") (A") (A") (A") (A")
                 (A") (A") (A") (A") (A") (A")
 Keep R1 and R2 ints in memory in symmetry-blocked form, NReq=188685587.
 Requested convergence on RMS density matrix=1.00D-08 within 128 cycles.
 Requested convergence on MAX density matrix=1.00D-06.
 Requested convergence on             energy=1.00D-06.
 No special actions if energy rises.
 SCF Done:  E(ROHF) =  -163.915884282     A.U. after   13 cycles
            NFock= 13  Conv=0.79D-08     -V/T= 2.0018
 <Sx>= 0.0000 <Sy>= 0.0000 <Sz>= 0.0000 <S**2>=-0.0000 S=-0.0000
 <L.S>=  0.00000000000    
 Annihilation of the first spin contaminant:
 S**2 before annihilation    -0.0000,   after     0.0000

 **********************************************************************

            Population analysis using the SCF Density.

 **********************************************************************

 Orbital symmetries:
       Occupied  (A') (A') (A') (A') (A') (A') (A') (A") (A') (A')
                 (A")
       Virtual   (A') (A') (A') (A") (A') (A') (A") (A') (A") (A')
                 (A') (A") (A') (A') (A') (A') (A") (A') (A') (A')
                 (A") (A') (A") (A') (A') (A") (A') (A') (A') (A')
                 (A") (A') (A') (A') (A") (A') (A") (A') (A') (A")
                 (A') (A') (A") (A') (A') (A") (A') (A") (A') (A")
                 (A') (A") (A') (A') (A') (A") (A') (A') (A') (A")
                 (A") (A') (A") (A') (A") (A') (A") (A') (A') (A')
                 (A') (A") (A') (A') (A") (A') (A") (A") (A') (A')
                 (A') (A") (A") (A') (A") (A') (A') (A") (A') (A')
                 (A') (A") (A') (A") (A') (A') (A') (A") (A') (A')
                 (A') (A") (A') (A') (A") (A') (A") (A") (A') (A')
                 (A") (A') (A') (A') (A") (A') (A") (A') (A") (A')
                 (A") (A') (A') (A") (A') (A') (A") (A') (A') (A")
                 (A') (A") (A') (A') (A") (A') (A') (A') (A") (A')
                 (A") (A') (A") (A") (A') (A') (A') (A") (A') (A")
                 (A') (A') (A') (A') (A") (A') (A") (A') (A") (A')
                 (A') (A') (A') (A') (A') (A')
 The electronic state is 1-A'.
 Alpha  occ. eigenvalues --  -15.79218 -15.67439 -15.61010  -1.51570  -1.29137
 Alpha  occ. eigenvalues --   -0.82909  -0.71129  -0.70743  -0.67273  -0.47072
 Alpha  occ. eigenvalues --   -0.40435
 Alpha virt. eigenvalues --    0.07019   0.08211   0.08695   0.09357   0.10700
 Alpha virt. eigenvalues --    0.13330   0.14369   0.15327   0.16987   0.17857
 Alpha virt. eigenvalues --    0.18881   0.20270   0.23805   0.28604   0.29036
 Alpha virt. eigenvalues --    0.41643   0.46197   0.48589   0.50086   0.53501
 Alpha virt. eigenvalues --    0.55641   0.55964   0.59608   0.61103   0.62188
 Alpha virt. eigenvalues --    0.67538   0.67738   0.69490   0.78246   0.79052
 Alpha virt. eigenvalues --    0.81526   0.86936   0.93392   1.04539   1.05386
 Alpha virt. eigenvalues --    1.09301   1.09982   1.18431   1.23714   1.32274
 Alpha virt. eigenvalues --    1.33230   1.40876   1.43648   1.51486   1.56308
 Alpha virt. eigenvalues --    1.57051   1.60387   1.67621   1.69155   1.70101
 Alpha virt. eigenvalues --    1.74117   1.74597   1.78310   1.80528   1.85575
 Alpha virt. eigenvalues --    1.91631   1.91756   1.96323   2.03141   2.03162
 Alpha virt. eigenvalues --    2.05300   2.06475   2.08554   2.10460   2.19253
 Alpha virt. eigenvalues --    2.20949   2.31199   2.32658   2.36106   2.40987
 Alpha virt. eigenvalues --    2.56948   2.57254   2.71917   2.79306   2.81838
 Alpha virt. eigenvalues --    2.83586   2.84430   2.93363   2.95527   2.97743
 Alpha virt. eigenvalues --    3.03003   3.13332   3.20290   3.24003   3.25706
 Alpha virt. eigenvalues --    3.27282   3.41844   3.45203   3.46211   3.51023
 Alpha virt. eigenvalues --    3.53709   3.54365   3.63646   3.64433   3.68109
 Alpha virt. eigenvalues --    3.93198   4.18926   4.20882   4.22612   4.39587
 Alpha virt. eigenvalues --    4.44544   4.64030   4.66594   5.24028   5.31314
 Alpha virt. eigenvalues --    5.43880   5.64656   5.69488   5.71101   5.77983
 Alpha virt. eigenvalues --    5.81327   5.83182   5.84624   5.90139   6.11203
 Alpha virt. eigenvalues --    6.13683   6.25702   6.33478   6.47247   6.57406
 Alpha virt. eigenvalues --    6.59695   6.69655   6.85594   6.96339   7.01036
 Alpha virt. eigenvalues --    7.11911   7.35717   7.47139   7.66833   7.81861
 Alpha virt. eigenvalues --    8.06760   8.34600   8.50446   8.71286   8.85480
 Alpha virt. eigenvalues --    9.03862   9.12995   9.49840   9.98644  10.05094
 Alpha virt. eigenvalues --   10.23134  10.27493  10.34484  10.41130  10.51850
 Alpha virt. eigenvalues --   10.74267  10.84174  10.88390  11.15387  11.35206
 Alpha virt. eigenvalues --   11.45744  11.72135  12.42081  12.77598  29.30098
 Alpha virt. eigenvalues --   29.47636  29.92525  29.99392  30.01142  30.01952
 Alpha virt. eigenvalues --   30.12781  30.37288  31.23756  31.37853  32.68364
 Alpha virt. eigenvalues --   33.97449
          Condensed to atoms (all electrons):
               1          2          3          4
     1  N    7.271508   0.113772  -0.174145   0.214079
     2  N    0.113772   6.082561   0.571815   0.022582
     3  N   -0.174145   0.571815   6.637866   0.005606
     4  H    0.214079   0.022582   0.005606   0.500644
          Atomic-Atomic Spin Densities.
               1          2          3          4
     1  N    0.000000   0.000000   0.000000   0.000000
     2  N    0.000000   0.000000   0.000000   0.000000
     3  N    0.000000   0.000000   0.000000   0.000000
     4  H    0.000000   0.000000   0.000000   0.000000
 Mulliken charges and spin densities:
               1          2
     1  N   -0.425215   0.000000
     2  N    0.209270   0.000000
     3  N   -0.041143   0.000000
     4  H    0.257088   0.000000
 Sum of Mulliken charges =  -0.00000   0.00000
 Mulliken charges and spin densities with hydrogens summed into heavy atoms:
               1          2
     1  N   -0.168127   0.000000
     2  N    0.209270   0.000000
     3  N   -0.041143   0.000000
 Electronic spatial extent (au):  <R**2>=            119.9044
 Charge=             -0.0000 electrons
 Dipole moment (field-independent basis, Debye):
    X=              1.6881    Y=             -0.1833    Z=              0.0000  Tot=              1.6980
 Quadrupole moment (field-independent basis, Debye-Ang):
   XX=            -14.9118   YY=            -19.7452   ZZ=            -17.5050
   XY=             -2.1646   XZ=              0.0000   YZ=              0.0000
 Traceless Quadrupole moment (field-independent basis, Debye-Ang):
   XX=              2.4755   YY=             -2.3578   ZZ=             -0.1177
   XY=             -2.1646   XZ=              0.0000   YZ=              0.0000
 Octapole moment (field-independent basis, Debye-Ang**2):
  XXX=              2.7682  YYY=             -2.4629  ZZZ=              0.0000  XYY=              5.0238
  XXY=             -1.9979  XXZ=              0.0000  XZZ=              0.2748  YZZ=              0.8181
  YYZ=              0.0000  XYZ=              0.0000
 Hexadecapole moment (field-independent basis, Debye-Ang**3):
 XXXX=            -17.5377 YYYY=           -121.2639 ZZZZ=            -16.3675 XXXY=              5.2414
 XXXZ=              0.0000 YYYX=              3.0102 YYYZ=              0.0000 ZZZX=              0.0000
 ZZZY=              0.0000 XXYY=            -19.6103 XXZZ=             -6.1441 YYZZ=            -24.2777
 XXYZ=              0.0000 YYXZ=              0.0000 ZZXY=              3.0090
 N-N= 6.195009694610D+01 E-N=-5.080013413801D+02  KE= 1.636280771982D+02
 Symmetry A'   KE= 1.570213603967D+02
 Symmetry A"   KE= 6.606716801538D+00
 Symmetry A'   SP= 0.000000000000D+00
 Symmetry A"   SP= 0.000000000000D+00
                          Isotropic Fermi Contact Couplings
        Atom                 a.u.       MegaHertz       Gauss      10(-4) cm-1
     1  N(14)              0.00000       0.00000       0.00000       0.00000
     2  N(14)              0.00000       0.00000       0.00000       0.00000
     3  N(14)              0.00000       0.00000       0.00000       0.00000
     4  H(1)               0.00000       0.00000       0.00000       0.00000
 --------------------------------------------------------
       Center         ----  Spin Dipole Couplings  ----
                      3XX-RR        3YY-RR        3ZZ-RR
 --------------------------------------------------------
     1   Atom        0.000000      0.000000      0.000000
     2   Atom        0.000000      0.000000      0.000000
     3   Atom        0.000000      0.000000      0.000000
     4   Atom        0.000000      0.000000      0.000000
 --------------------------------------------------------
                        XY            XZ            YZ
 --------------------------------------------------------
     1   Atom        0.000000      0.000000      0.000000
     2   Atom        0.000000      0.000000      0.000000
     3   Atom        0.000000      0.000000      0.000000
     4   Atom        0.000000      0.000000      0.000000
 --------------------------------------------------------


 ---------------------------------------------------------------------------------
              Anisotropic Spin Dipole Couplings in Principal Axis System
 ---------------------------------------------------------------------------------

       Atom             a.u.   MegaHertz   Gauss  10(-4) cm-1        Axes

              Baa     0.0000     0.000     0.000     0.000  1.0000  0.0000  0.0000
     1 N(14)  Bbb     0.0000     0.000     0.000     0.000 -0.0000  1.0000  0.0000
              Bcc     0.0000     0.000     0.000     0.000  0.0000  0.0000  1.0000
 
              Baa     0.0000     0.000     0.000     0.000  1.0000  0.0000  0.0000
     2 N(14)  Bbb     0.0000     0.000     0.000     0.000 -0.0000  1.0000  0.0000
              Bcc     0.0000     0.000     0.000     0.000  0.0000  0.0000  1.0000
 
              Baa     0.0000     0.000     0.000     0.000  1.0000  0.0000  0.0000
     3 N(14)  Bbb     0.0000     0.000     0.000     0.000 -0.0000  1.0000  0.0000
              Bcc     0.0000     0.000     0.000     0.000  0.0000  0.0000  1.0000
 
              Baa     0.0000     0.000     0.000     0.000  1.0000  0.0000  0.0000
     4 H(1)   Bbb     0.0000     0.000     0.000     0.000 -0.0000  1.0000  0.0000
              Bcc     0.0000     0.000     0.000     0.000  0.0000  0.0000  1.0000
 

 ---------------------------------------------------------------------------------

 1\1\GINC-GAMBA\SP\ROHF\Gen\H1N3\IRIKURA\29-Sep-2023\0\\# rohf/gen geom
 =check guess=check\\hydrazoic acid, ROHF/cc-pVTZ-F12\\0,1\N,0,0.08519,
 -1.120874,0.\N,0,0.,0.111155,0.\N,0,-0.236553,1.21154,0.\H,0,1.059537,
 -1.412756,0.\\Version=ES64L-G16RevB.01\State=1-A'\HF=-163.9158843\RMSD
 =7.947e-09\Dipole=0.6641361,-0.0721103,0.\Quadrupole=1.8404675,-1.7529
 961,-0.0874714,-1.6093359,0.,0.\PG=CS [SG(H1N3)]\\@


 This summer one third of the nation will be ill-housed
 ill-nourished and ill-clad. Only they call it a vacation.
 -- Jonas Salk
 Job cpu time:       0 days  0 hours  0 minutes 29.9 seconds.
 Elapsed time:       0 days  0 hours  0 minutes  8.1 seconds.
 File lengths (MBytes):  RWF=     16 Int=      0 D2E=      0 Chk=      4 Scr=      1
 Normal termination of Gaussian 16 at Fri Sep 29 18:47:18 2023.
