 Entering Gaussian System, Link 0=g16
 AtFile(1): pcseg2.gbs
            -H     0
            S   4   1.00
                  0.754732D+02           0.427821D-02
                  0.113575D+02           0.328672D-01
                  0.260081D+01           0.159578D+00
                  0.735503D+00           0.500000D+00
            S   1   1.00
                  0.231761D+00           1.0000000
            S   1   1.00
                  0.741675D-01           1.0000000
            P   1   1.00
                  0.160000D+01           1.0000000
            P   1   1.00
                  0.450000D+00           1.0000000
            D   1   1.00
                  0.125000D+01           1.0000000
            ****
            -C     0
            S   7   1.00
                  0.731999D+04           0.695369D-03
                  0.109818D+04           0.537138D-02
                  0.250014D+03           0.274734D-01
                  0.707586D+02           0.105078D+00
                  0.228595D+02           0.291262D+00
                  0.803936D+01           0.500000D+00
                  0.289309D+01           0.362224D+00
            S   2   1.00
                  0.521640D+01          -0.957844D-01
                  0.556124D+00           0.500000D+00
            S   1   1.00
                  0.228813D+00           1.0000000
            S   1   1.00
                  0.936338D-01           1.0000000
            P   4   1.00
                  0.339855D+02           0.818395D-02
                  0.772957D+01           0.586921D-01
                  0.224954D+01           0.222514D+00
                  0.767681D+00           0.500000D+00
            P   1   1.00
                  0.263283D+00           1.0000000
            P   1   1.00
                  0.848744D-01           1.0000000
            D   1   1.00
                  0.140000D+01           1.0000000
            D   1   1.00
                  0.450000D+00           1.0000000
            F   1   1.00
                  0.950000D+00           1.0000000
            ****
            -O     0
            S   7   1.00
                  0.135887D+05           0.665492D-03
                  0.203847D+04           0.514222D-02
                  0.464041D+03           0.263472D-01
                  0.131339D+03           0.101500D+00
                  0.425340D+02           0.285877D+00
                  0.150429D+02           0.500000D+00
                  0.546616D+01           0.368211D+00
            S   2   1.00
                  0.100915D+02          -0.100084D+00
                  0.110429D+01           0.500000D+00
            S   1   1.00
                  0.448082D+00           1.0000000
            S   1   1.00
                  0.175325D+00           1.0000000
            P   4   1.00
                  0.608220D+02           0.908253D-02
                  0.140332D+02           0.645878D-01
                  0.418244D+01           0.241502D+00
                  0.142490D+01           0.500000D+00
            P   1   1.00
                  0.478741D+00           1.0000000
            P   1   1.00
                  0.146257D+00           1.0000000
            D   1   1.00
                  0.220000D+01           1.0000000
            D   1   1.00
                  0.650000D+00           1.0000000
            F   1   1.00
                  0.110000D+01           1.0000000
            ****
            -N     0
            S   7   1.00
                  0.101643D+05           0.682757D-03
                  0.152481D+04           0.527488D-02
                  0.347119D+03           0.270037D-01
                  0.982389D+02           0.103673D+00
                  0.317799D+02           0.289575D+00
                  0.112240D+02           0.500000D+00
                  0.406611D+01           0.364621D+00
            S   2   1.00
                  0.747898D+01          -0.975681D-01
                  0.805040D+00           0.500000D+00
            S   1   1.00
                  0.324626D+00           1.0000000
            S   1   1.00
                  0.128132D+00           1.0000000
            P   4   1.00
                  0.482704D+02           0.829547D-02
                  0.110815D+02           0.596223D-01
                  0.326643D+01           0.227889D+00
                  0.111680D+01           0.500000D+00
            P   1   1.00
                  0.382049D+00           1.0000000
            P   1   1.00
                  0.121222D+00           1.0000000
            D   1   1.00
                  0.180000D+01           1.0000000
            D   1   1.00
                  0.550000D+00           1.0000000
            F   1   1.00
                  0.102000D+01           1.0000000
            ****
            -F     0
            S   7   1.00
                  0.174507D+05           0.655972D-03
                  0.261768D+04           0.506944D-02
                  0.595857D+03           0.259899D-01
                  0.168651D+03           0.100353D+00
                  0.546654D+02           0.284095D+00
                  0.193717D+02           0.500000D+00
                  0.706202D+01           0.370721D+00
            S   2   1.00
                  0.131197D+02          -0.101997D+00
                  0.145046D+01           0.500000D+00
            S   1   1.00
                  0.588255D+00           1.0000000
            S   1   1.00
                  0.227960D+00           1.0000000
            P   4   1.00
                  0.779407D+02           0.931135D-02
                  0.180425D+02           0.663964D-01
                  0.542342D+01           0.246386D+00
                  0.184876D+01           0.500000D+00
            P   1   1.00
                  0.617455D+00           1.0000000
            P   1   1.00
                  0.185496D+00           1.0000000
            D   1   1.00
                  0.280000D+01           1.0000000
            D   1   1.00
                  0.800000D+00           1.0000000
            F   1   1.00
                  0.120000D+01           1.0000000
            ****
            -Cl     0
            S   8   1.00
                  0.154272D+06           0.222473D-03
                  0.231232D+05           0.172590D-02
                  0.526257D+04           0.899286D-02
                  0.148995D+04           0.367724D-01
                  0.485417D+03           0.121446D+00
                  0.174634D+03           0.304148D+00
                  0.672393D+02           0.500000D+00
                  0.265780D+02           0.360252D+00
            S   3   1.00
                  0.131826D+03          -0.531330D-01
                  0.400703D+02          -0.233346D+00
                  0.789448D+01           0.500000D+00
            S   2   1.00
                  0.427711D+01           0.500000D+00
                  0.196233D+01           0.370517D+00
            S   1   1.00
                  0.520793D+00           1.0000000
            S   1   1.00
                  0.181633D+00           1.0000000
            P   7   1.00
                  0.124440D+04           0.988206D-03
                  0.295109D+03           0.829674D-02
                  0.947224D+02           0.430906D-01
                  0.352588D+02           0.148443D+00
                  0.144211D+02           0.344744D+00
                  0.610371D+01           0.500000D+00
                  0.258886D+01           0.348278D+00
            P   2   1.00
                  0.109447D+02          -0.196768D-01
                  0.104413D+01           0.500000D+00
            P   1   1.00
                  0.376184D+00           1.0000000
            P   1   1.00
                  0.120613D+00           1.0000000
            D   1   1.00
                  0.231000D+01           1.0000000
            D   1   1.00
                  0.520000D+00           1.0000000
            F   1   1.00
                  0.720000D+00           1.0000000
            ****
            -S     0
            S   8   1.00
                  0.134700D+06           0.226231D-03
                  0.201904D+05           0.175488D-02
                  0.459528D+04           0.914190D-02
                  0.130109D+04           0.373551D-01
                  0.423902D+03           0.123121D+00
                  0.152485D+03           0.306801D+00
                  0.586925D+02           0.500000D+00
                  0.231461D+02           0.354358D+00
            S   3   1.00
                  0.116327D+03          -0.491772D-01
                  0.352841D+02          -0.215962D+00
                  0.677831D+01           0.500000D+00
            S   2   1.00
                  0.360404D+01           0.500000D+00
                  0.164871D+01           0.366278D+00
            S   1   1.00
                  0.421821D+00           1.0000000
            S   1   1.00
                  0.147554D+00           1.0000000
            P   7   1.00
                  0.104863D+04           0.105273D-02
                  0.248717D+03           0.879338D-02
                  0.797887D+02           0.453358D-01
                  0.296023D+02           0.154476D+00
                  0.120627D+02           0.352366D+00
                  0.507628D+01           0.500000D+00
                  0.213375D+01           0.346429D+00
            P   2   1.00
                  0.928958D+01          -0.185932D-01
                  0.837819D+00           0.500000D+00
            P   1   1.00
                  0.301495D+00           1.0000000
            P   1   1.00
                  0.974740D-01           1.0000000
            D   1   1.00
                  0.210000D+01           1.0000000
            D   1   1.00
                  0.480000D+00           1.0000000
            F   1   1.00
                  0.660000D+00           1.0000000
            ****
            -Br     0
            S    10   1.00
                  0.233625D+07           0.532336D-04
                  0.349961D+06           0.413715D-03
                  0.796444D+05           0.217123D-02
                  0.225555D+05           0.910109D-02
                  0.735546D+04           0.323789D-01
                  0.265352D+04           0.988755D-01
                  0.103517D+04           0.248138D+00
                  0.422205D+03           0.474328D+00
                  0.180035D+03           0.500000D+00
                  0.793308D+02           0.187769D+00
            S    4   1.00
                  0.620834D+03          -0.226511D-01
                  0.190829D+03          -0.109497D+00
                  0.312505D+02           0.500000D+00
                  0.135270D+02           0.492812D+00
            S    2   1.00
                  0.216097D+02          -0.165418D+00
                  0.372566D+01           0.500000D+00
            S    1   1.00
                  0.169770D+01           1.0000000
            S    1   1.00
                  0.489332D+00           1.0000000
            S    1   1.00
                  0.175712D+00           1.0000000
            P    8   1.00
                  0.960829D+04           0.478974D-03
                  0.227618D+04           0.417853D-02
                  0.736723D+03           0.229315D-01
                  0.281579D+03           0.892653D-01
                  0.118395D+03           0.255288D+00
                  0.527481D+02           0.479074D+00
                  0.245098D+02           0.500000D+00
                  0.112009D+02           0.200944D+00
            P    4   1.00
                  0.587849D+02          -0.189674D-01
                  0.918962D+01           0.264104D+00
                  0.413895D+01           0.500000D+00
                  0.184225D+01           0.319316D+00
            P    1   1.00
                  0.713862D+00           1.0000000
            P    1   1.00
                  0.274232D+00           1.0000000
            P    1   1.00
                  0.944411D-01           1.0000000
            D    7   1.00
                  0.398470D+03           0.204066D-02
                  0.118967D+03           0.175171D-01
                  0.450197D+02           0.829708D-01
                  0.190320D+02           0.236284D+00
                  0.855686D+01           0.428468D+00
                  0.382950D+01           0.500000D+00
                  0.166291D+01           0.349360D+00
            D    1   1.00
                  0.672953D+00           1.0000000
            D    1   1.00
                  0.252000D+00           1.0000000
            F    1   1.00
                  0.530000D+00           1.0000000
            ****
            -Si     0
            S    8   1.00
                  0.996133D+05           0.235546D-03
                  0.149311D+05           0.182707D-02
                  0.339820D+04           0.951425D-02
                  0.962140D+03           0.388172D-01
                  0.313430D+03           0.127328D+00
                  0.112683D+03           0.313522D+00
                  0.433372D+02           0.500000D+00
                  0.170029D+02           0.340347D+00
            S    3   1.00
                  0.884208D+02          -0.404451D-01
                  0.266756D+02          -0.178059D+00
                  0.479640D+01           0.500000D+00
            S    2   1.00
                  0.239385D+01           0.500000D+00
                  0.108333D+01           0.338016D+00
            S    1   1.00
                  0.252420D+00           1.0000000
            S    1   1.00
                  0.891210D-01           1.0000000
            P    7   1.00
                  0.709901D+03           0.123028D-02
                  0.168426D+03           0.101366D-01
                  0.539946D+02           0.511840D-01
                  0.198646D+02           0.169967D+00
                  0.801369D+01           0.370717D+00
                  0.331870D+01           0.500000D+00
                  0.136112D+01           0.344128D+00
            P    2   1.00
                  0.622158D+01          -0.166609D-01
                  0.503049D+00           0.500000D+00
            P    1   1.00
                  0.179848D+00           1.0000000
            P    1   1.00
                  0.591912D-01           1.0000000
            D    1   1.00
                  0.168000D+01           1.0000000
            D    1   1.00
                  0.380000D+00           1.0000000
            F    1   1.00
                  0.540000D+00           1.0000000
            ****
            -P     0
            S    8   1.00
                  0.116416D+06           0.230715D-03
                  0.174500D+05           0.178960D-02
                  0.397149D+04           0.932116D-02
                  0.112447D+04           0.380591D-01
                  0.366347D+03           0.125148D+00
                  0.131757D+03           0.310022D+00
                  0.506988D+02           0.500000D+00
                  0.199436D+02           0.347528D+00
            S    3   1.00
                  0.101878D+03          -0.446755D-01
                  0.308249D+02          -0.196376D+00
                  0.573688D+01           0.500000D+00
            S    2   1.00
                  0.296868D+01           0.500000D+00
                  0.135315D+01           0.355098D+00
            S    1   1.00
                  0.332196D+00           1.0000000
            S    1   1.00
                  0.116229D+00           1.0000000
            P    7   1.00
                  0.873928D+03           0.112375D-02
                  0.207298D+03           0.933330D-02
                  0.664628D+02           0.477213D-01
                  0.245665D+02           0.160733D+00
                  0.996820D+01           0.359760D+00
                  0.416536D+01           0.500000D+00
                  0.173022D+01           0.346593D+00
            P    2   1.00
                  0.772530D+01          -0.175718D-01
                  0.657252D+00           0.500000D+00
            P    1   1.00
                  0.239903D+00           1.0000000
            P    1   1.00
                  0.800988D-01           1.0000000
            D    1   1.00
                  0.189000D+01           1.0000000
            D    1   1.00
                  0.430000D+00           1.0000000
            F    1   1.00
                  0.600000D+00           1.0000000
            ****
            
 Initial command:
 /usr/local/apps/g16_b01_avx/g16/l1.exe "/wrk/irikura/Gau-15728.inp" -scrdir="/wrk/irikura/"
 Entering Link 1 = /usr/local/apps/g16_b01_avx/g16/l1.exe PID=     15730.
  
 Copyright (c) 1988-2017, Gaussian, Inc.  All Rights Reserved.
  
 This is part of the Gaussian(R) 16 program.  It is based on
 the Gaussian(R) 09 system (copyright 2009, Gaussian, Inc.),
 the Gaussian(R) 03 system (copyright 2003, Gaussian, Inc.),
 the Gaussian(R) 98 system (copyright 1998, Gaussian, Inc.),
 the Gaussian(R) 94 system (copyright 1995, Gaussian, Inc.),
 the Gaussian 92(TM) system (copyright 1992, Gaussian, Inc.),
 the Gaussian 90(TM) system (copyright 1990, Gaussian, Inc.),
 the Gaussian 88(TM) system (copyright 1988, Gaussian, Inc.),
 the Gaussian 86(TM) system (copyright 1986, Carnegie Mellon
 University), and the Gaussian 82(TM) system (copyright 1983,
 Carnegie Mellon University). Gaussian is a federally registered
 trademark of Gaussian, Inc.
  
 This software contains proprietary and confidential information,
 including trade secrets, belonging to Gaussian, Inc.
  
 This software is provided under written license and may be
 used, copied, transmitted, or stored only in accord with that
 written license.
  
 The following legend is applicable only to US Government
 contracts under FAR:
  
                    RESTRICTED RIGHTS LEGEND
  
 Use, reproduction and disclosure by the US Government is
 subject to restrictions as set forth in subparagraphs (a)
 and (c) of the Commercial Computer Software - Restricted
 Rights clause in FAR 52.227-19.
  
 Gaussian, Inc.
 340 Quinnipiac St., Bldg. 40, Wallingford CT 06492
  
  
 ---------------------------------------------------------------
 Warning -- This program may not be used in any manner that
 competes with the business of Gaussian, Inc. or will provide
 assistance to any competitor of Gaussian, Inc.  The licensee
 of this program is prohibited from giving any competitor of
 Gaussian, Inc. access to this program.  By using this program,
 the user acknowledges that Gaussian, Inc. is engaged in the
 business of creating and licensing software in the field of
 computational chemistry and represents and warrants to the
 licensee that it is not a competitor of Gaussian, Inc. and that
 it will not use this program in any manner prohibited above.
 ---------------------------------------------------------------
  

 Cite this work as:
 Gaussian 16, Revision B.01,
 M. J. Frisch, G. W. Trucks, H. B. Schlegel, G. E. Scuseria, 
 M. A. Robb, J. R. Cheeseman, G. Scalmani, V. Barone, 
 G. A. Petersson, H. Nakatsuji, X. Li, M. Caricato, A. V. Marenich, 
 J. Bloino, B. G. Janesko, R. Gomperts, B. Mennucci, H. P. Hratchian, 
 J. V. Ortiz, A. F. Izmaylov, J. L. Sonnenberg, D. Williams-Young, 
 F. Ding, F. Lipparini, F. Egidi, J. Goings, B. Peng, A. Petrone, 
 T. Henderson, D. Ranasinghe, V. G. Zakrzewski, J. Gao, N. Rega, 
 G. Zheng, W. Liang, M. Hada, M. Ehara, K. Toyota, R. Fukuda, 
 J. Hasegawa, M. Ishida, T. Nakajima, Y. Honda, O. Kitao, H. Nakai, 
 T. Vreven, K. Throssell, J. A. Montgomery, Jr., J. E. Peralta, 
 F. Ogliaro, M. J. Bearpark, J. J. Heyd, E. N. Brothers, K. N. Kudin, 
 V. N. Staroverov, T. A. Keith, R. Kobayashi, J. Normand, 
 K. Raghavachari, A. P. Rendell, J. C. Burant, S. S. Iyengar, 
 J. Tomasi, M. Cossi, J. M. Millam, M. Klene, C. Adamo, R. Cammi, 
 J. W. Ochterski, R. L. Martin, K. Morokuma, O. Farkas, 
 J. B. Foresman, and D. J. Fox, Gaussian, Inc., Wallingford CT, 2016.
 
 ******************************************
 Gaussian 16:  ES64L-G16RevB.01 20-Dec-2017
                30-Aug-2022 
 ******************************************
 %mem=500mw
 %nprocs=6
 Will use up to    6 processors via shared memory.
 --------------------
 # b3lyp/gen opt freq
 --------------------
 1/18=20,19=15,26=3,38=1/1,3;
 2/9=110,12=2,17=6,18=5,40=1/2;
 3/5=7,11=2,25=1,30=1,71=1,74=-5/1,2,3;
 4//1;
 5/5=2,38=5/2;
 6/7=2,8=2,9=2,10=2,28=1/1;
 7//1,2,3,16;
 1/18=20,19=15,26=3/3(2);
 2/9=110/2;
 99//99;
 2/9=110/2;
 3/5=7,6=1,11=2,25=1,30=1,71=1,74=-5,82=7/1,2,3;
 4/5=5,16=3,69=1/1;
 5/5=2,38=5/2;
 7//1,2,3,16;
 1/18=20,19=15,26=3/3(-5);
 2/9=110/2;
 6/7=2,8=2,9=2,10=2,19=2,28=1/1;
 99/9=1/99;
 ----------------------------
 trans-diazene, B3LYP/pcseg-2
 ----------------------------
 Symbolic Z-matrix:
 Charge =  0 Multiplicity = 1
 N                     0.61215  -0.104     0. 
 N                    -0.61215   0.104     0. 
 H                     1.06785   0.82837   0. 
 H                    -1.06785  -0.82837   0. 
 

 GradGradGradGradGradGradGradGradGradGradGradGradGradGradGradGradGradGrad
 Berny optimization.
 Initialization pass.
                           ----------------------------
                           !    Initial Parameters    !
                           ! (Angstroms and Degrees)  !
 --------------------------                            --------------------------
 ! Name  Definition              Value          Derivative Info.                !
 --------------------------------------------------------------------------------
 ! R1    R(1,2)                  1.2419         estimate D2E/DX2                !
 ! R2    R(1,3)                  1.0378         estimate D2E/DX2                !
 ! R3    R(2,4)                  1.0378         estimate D2E/DX2                !
 ! A1    A(2,1,3)              106.4052         estimate D2E/DX2                !
 ! A2    A(1,2,4)              106.4052         estimate D2E/DX2                !
 ! D1    D(3,1,2,4)            180.0            estimate D2E/DX2                !
 --------------------------------------------------------------------------------
 Trust Radius=3.00D-01 FncErr=1.00D-07 GrdErr=1.00D-06 EigMax=2.50D+02 EigMin=1.00D-04
 Number of steps in this run=     20 maximum allowed number of steps=    100.
 GradGradGradGradGradGradGradGradGradGradGradGradGradGradGradGradGradGrad

                          Input orientation:                          
 ---------------------------------------------------------------------
 Center     Atomic      Atomic             Coordinates (Angstroms)
 Number     Number       Type             X           Y           Z
 ---------------------------------------------------------------------
      1          7           0        0.612154   -0.104001    0.000000
      2          7           0       -0.612154    0.104001    0.000000
      3          1           0        1.067855    0.828370    0.000000
      4          1           0       -1.067855   -0.828370    0.000000
 ---------------------------------------------------------------------
                    Distance matrix (angstroms):
                    1          2          3          4
     1  N    0.000000
     2  N    1.241851   0.000000
     3  H    1.037776   1.829519   0.000000
     4  H    1.829519   1.037776   2.702970   0.000000
 Stoichiometry    H2N2
 Framework group  C2H[SGH(H2N2)]
 Deg. of freedom     3
 Full point group                 C2H     NOp   4
 Largest Abelian subgroup         C2H     NOp   4
 Largest concise Abelian subgroup C2      NOp   2
                         Standard orientation:                         
 ---------------------------------------------------------------------
 Center     Atomic      Atomic             Coordinates (Angstroms)
 Number     Number       Type             X           Y           Z
 ---------------------------------------------------------------------
      1          7           0        0.000000    0.620926    0.000000
      2          7           0       -0.000000   -0.620926    0.000000
      3          1           0        0.995527    0.914023    0.000000
      4          1           0       -0.995527   -0.914023    0.000000
 ---------------------------------------------------------------------
 Rotational constants (GHZ):         299.7408675          39.5034466          34.9034512
 General basis read from cards:  (5D, 7F)
 There are    35 symmetry adapted cartesian basis functions of AG  symmetry.
 There are    15 symmetry adapted cartesian basis functions of BG  symmetry.
 There are    15 symmetry adapted cartesian basis functions of AU  symmetry.
 There are    35 symmetry adapted cartesian basis functions of BU  symmetry.
 There are    30 symmetry adapted basis functions of AG  symmetry.
 There are    14 symmetry adapted basis functions of BG  symmetry.
 There are    14 symmetry adapted basis functions of AU  symmetry.
 There are    30 symmetry adapted basis functions of BU  symmetry.
    88 basis functions,   138 primitive gaussians,   100 cartesian basis functions
     8 alpha electrons        8 beta electrons
       nuclear repulsion energy        32.2638554263 Hartrees.
 NAtoms=    4 NActive=    4 NUniq=    2 SFac= 4.00D+00 NAtFMM=   60 NAOKFM=F Big=F
 Integral buffers will be    131072 words long.
 Raffenetti 2 integral format.
 Two-electron integral symmetry is turned on.
 One-electron integrals computed using PRISM.
 NBasis=    88 RedAO= T EigKep=  5.52D-04  NBF=    30    14    14    30
 NBsUse=    88 1.00D-06 EigRej= -1.00D+00 NBFU=    30    14    14    30
 ExpMin= 7.42D-02 ExpMax= 1.02D+04 ExpMxC= 3.47D+02 IAcc=3 IRadAn=         5 AccDes= 0.00D+00
 Harris functional with IExCor=  402 and IRadAn=       5 diagonalized for initial guess.
 HarFok:  IExCor=  402 AccDes= 0.00D+00 IRadAn=         5 IDoV= 1 UseB2=F ITyADJ=14
 ICtDFT=  3500011 ScaDFX=  1.000000  1.000000  1.000000  1.000000
 FoFCou: FMM=F IPFlag=           0 FMFlag=      100000 FMFlg1=           0
         NFxFlg=           0 DoJE=T BraDBF=F KetDBF=T FulRan=T
         wScrn=  0.000000 ICntrl=       500 IOpCl=  0 I1Cent=   200000004 NGrid=           0
         NMat0=    1 NMatS0=      1 NMatT0=    0 NMatD0=    1 NMtDS0=    0 NMtDT0=    0
 Petite list used in FoFCou.
 Initial guess orbital symmetries:
       Occupied  (AG) (BU) (AG) (BU) (AG) (BU) (AU) (AG)
       Virtual   (BG) (AG) (BU) (BU) (AG) (AU) (BU) (AG) (AG) (BG)
                 (BU) (AG) (BU) (BU) (BG) (BU) (AU) (AG) (AG) (BU)
                 (AU) (AG) (BG) (AG) (BU) (BU) (AU) (AG) (BG) (BU)
                 (AU) (BU) (AG) (BU) (BG) (AG) (AG) (BU) (AG) (BG)
                 (AU) (AG) (BU) (BG) (AU) (BU) (AG) (BU) (AU) (AG)
                 (BU) (BG) (AG) (BU) (AU) (AG) (BG) (AG) (BU) (BU)
                 (AU) (BG) (AU) (BG) (AG) (BU) (AU) (AG) (BU) (BG)
                 (AU) (AG) (BU) (BG) (AG) (BU) (AG) (BU) (AG) (BU)
 The electronic state of the initial guess is 1-AG.
 Keep R1 ints in memory in symmetry-blocked form, NReq=13238920.
 Requested convergence on RMS density matrix=1.00D-08 within 128 cycles.
 Requested convergence on MAX density matrix=1.00D-06.
 Requested convergence on             energy=1.00D-06.
 No special actions if energy rises.
 Integral accuracy reduced to 1.0D-05 until final iterations.
 Initial convergence to 1.0D-05 achieved.  Increase integral accuracy.
 SCF Done:  E(RB3LYP) =  -110.690851804     A.U. after   10 cycles
            NFock= 10  Conv=0.85D-09     -V/T= 2.0037

 **********************************************************************

            Population analysis using the SCF Density.

 **********************************************************************

 Orbital symmetries:
       Occupied  (AG) (BU) (AG) (BU) (AG) (BU) (AU) (AG)
       Virtual   (BG) (AG) (BU) (BU) (AG) (AU) (BU) (AG) (AG) (BG)
                 (BU) (AG) (BU) (BU) (BG) (BU) (AU) (AG) (AG) (BU)
                 (AU) (AG) (BG) (AG) (BU) (BU) (AU) (AG) (BG) (BU)
                 (AU) (BU) (AG) (BU) (BG) (AG) (AG) (BU) (AG) (BG)
                 (AU) (AG) (BU) (BG) (AU) (BU) (AG) (BU) (AU) (AG)
                 (BU) (BG) (AG) (AU) (BU) (AG) (BG) (AG) (BU) (BU)
                 (AU) (BG) (AU) (BG) (AG) (BU) (AU) (AG) (BG) (BU)
                 (AU) (AG) (BU) (BG) (AG) (BU) (AG) (BU) (AG) (BU)
 The electronic state is 1-AG.
 Alpha  occ. eigenvalues --  -14.38048 -14.37995  -1.04257  -0.70567  -0.49767
 Alpha  occ. eigenvalues --   -0.45225  -0.40592  -0.25495
 Alpha virt. eigenvalues --   -0.07056   0.02260   0.03082   0.18493   0.23057
 Alpha virt. eigenvalues --    0.24296   0.29555   0.30290   0.31700   0.34412
 Alpha virt. eigenvalues --    0.36478   0.38928   0.49131   0.56092   0.69893
 Alpha virt. eigenvalues --    0.78564   0.81355   0.94904   1.07037   1.08417
 Alpha virt. eigenvalues --    1.14555   1.22878   1.38950   1.40798   1.46807
 Alpha virt. eigenvalues --    1.52725   1.64038   1.69208   1.73385   1.74678
 Alpha virt. eigenvalues --    1.78174   1.80688   2.00023   2.04930   2.12525
 Alpha virt. eigenvalues --    2.30107   2.52194   2.88996   2.89472   3.16625
 Alpha virt. eigenvalues --    3.30065   3.41188   3.43813   3.51319   3.52281
 Alpha virt. eigenvalues --    3.64599   3.76436   3.76803   3.77404   4.10075
 Alpha virt. eigenvalues --    4.13017   4.16855   4.25106   4.33037   4.33292
 Alpha virt. eigenvalues --    4.41735   4.42666   4.61621   4.66088   4.73867
 Alpha virt. eigenvalues --    4.82356   5.03781   5.19173   5.22627   5.24881
 Alpha virt. eigenvalues --    5.26594   5.29139   5.38975   5.51352   5.53754
 Alpha virt. eigenvalues --    5.57302   5.69293   5.71393   5.86247   6.05448
 Alpha virt. eigenvalues --    6.35440   6.40599   6.52695   6.62997   7.88829
          Condensed to atoms (all electrons):
               1          2          3          4
     1  N    6.569057   0.369698   0.300362  -0.098209
     2  N    0.369698   6.569057  -0.098209   0.300362
     3  H    0.300362  -0.098209   0.637232   0.019705
     4  H   -0.098209   0.300362   0.019705   0.637232
 Mulliken charges:
               1
     1  N   -0.140910
     2  N   -0.140910
     3  H    0.140910
     4  H    0.140910
 Sum of Mulliken charges =   0.00000
 Mulliken charges with hydrogens summed into heavy atoms:
               1
     1  N    0.000000
     2  N    0.000000
 Electronic spatial extent (au):  <R**2>=             59.2272
 Charge=             -0.0000 electrons
 Dipole moment (field-independent basis, Debye):
    X=              0.0000    Y=              0.0000    Z=              0.0000  Tot=              0.0000
 Quadrupole moment (field-independent basis, Debye-Ang):
   XX=            -10.5945   YY=            -13.3044   ZZ=            -12.2913
   XY=              3.5297   XZ=              0.0000   YZ=             -0.0000
 Traceless Quadrupole moment (field-independent basis, Debye-Ang):
   XX=              1.4689   YY=             -1.2410   ZZ=             -0.2279
   XY=              3.5297   XZ=              0.0000   YZ=             -0.0000
 Octapole moment (field-independent basis, Debye-Ang**2):
  XXX=              0.0000  YYY=             -0.0000  ZZZ=              0.0000  XYY=              0.0000
  XXY=             -0.0000  XXZ=              0.0000  XZZ=              0.0000  YZZ=             -0.0000
  YYZ=              0.0000  XYZ=             -0.0000
 Hexadecapole moment (field-independent basis, Debye-Ang**3):
 XXXX=            -16.2732 YYYY=            -47.1269 ZZZZ=            -11.5079 XXXY=              0.5907
 XXXZ=              0.0000 YYYX=              1.6040 YYYZ=             -0.0000 ZZZX=              0.0000
 ZZZY=             -0.0000 XXYY=             -9.6189 XXZZ=             -5.1588 YYZZ=             -9.5371
 XXYZ=             -0.0000 YYXZ=              0.0000 ZZXY=             -0.5322
 N-N= 3.226385542634D+01 E-N=-3.235249800711D+02  KE= 1.102816513838D+02
 Symmetry AG   KE= 5.572618865810D+01
 Symmetry BG   KE= 3.684638986456D-20
 Symmetry AU   KE= 3.184645617981D+00
 Symmetry BU   KE= 5.137081710772D+01
 Calling FoFJK, ICntrl=      2127 FMM=F ISym2X=1 I1Cent= 0 IOpClX= 0 NMat=1 NMatS=1 NMatT=0.
 ***** Axes restored to original set *****
 -------------------------------------------------------------------
 Center     Atomic                   Forces (Hartrees/Bohr)
 Number     Number              X              Y              Z
 -------------------------------------------------------------------
      1        7          -0.006233169    0.007066067    0.000000000
      2        7           0.006233169   -0.007066067   -0.000000000
      3        1          -0.000683272   -0.003973532    0.000000000
      4        1           0.000683272    0.003973532   -0.000000000
 -------------------------------------------------------------------
 Cartesian Forces:  Max     0.007066067 RMS     0.004184047

 GradGradGradGradGradGradGradGradGradGradGradGradGradGradGradGradGradGrad
 Berny optimization.
 FormGI is forming the generalized inverse of G from B-inverse, IUseBI=4.
 Internal  Forces:  Max     0.007336663 RMS     0.003950108
 Search for a local minimum.
 Step number   1 out of a maximum of   20
 All quantities printed in internal units (Hartrees-Bohrs-Radians)
 Mixed Optimization -- RFO/linear search
 Second derivative matrix not updated -- first step.
 The second derivative matrix:
                          R1        R2        R3        A1        A2
           R1           0.86322
           R2           0.00000   0.41619
           R3           0.00000   0.00000   0.41619
           A1           0.00000   0.00000   0.00000   0.16000
           A2           0.00000   0.00000   0.00000   0.00000   0.16000
           D1           0.00000   0.00000   0.00000   0.00000   0.00000
                          D1
           D1           0.03387
 ITU=  0
     Eigenvalues ---    0.03387   0.16000   0.16000   0.41619   0.41619
     Eigenvalues ---    0.86322
 RFO step:  Lambda=-1.95701827D-04 EMin= 3.38680769D-02
 Linear search not attempted -- first point.
 Iteration  1 RMS(Cart)=  0.00659303 RMS(Int)=  0.00004903
 Iteration  2 RMS(Cart)=  0.00006865 RMS(Int)=  0.00000000
 Iteration  3 RMS(Cart)=  0.00000000 RMS(Int)=  0.00000000
 ClnCor:  largest displacement from symmetrization is 1.55D-14 for atom     4.
 Variable       Old X    -DE/DX   Delta X   Delta X   Delta X     New X
                                 (Linear)    (Quad)   (Total)
    R1        2.34676  -0.00734   0.00000  -0.00850  -0.00850   2.33826
    R2        1.96111  -0.00387   0.00000  -0.00929  -0.00929   1.95182
    R3        1.96111  -0.00387   0.00000  -0.00929  -0.00929   1.95182
    A1        1.85712   0.00222   0.00000   0.01385   0.01385   1.87097
    A2        1.85712   0.00222   0.00000   0.01385   0.01385   1.87097
    D1        3.14159  -0.00000   0.00000  -0.00000   0.00000   3.14159
         Item               Value     Threshold  Converged?
 Maximum Force            0.007337     0.000450     NO 
 RMS     Force            0.003950     0.000300     NO 
 Maximum Displacement     0.010153     0.001800     NO 
 RMS     Displacement     0.006576     0.001200     NO 
 Predicted change in Energy=-9.791244D-05
 GradGradGradGradGradGradGradGradGradGradGradGradGradGradGradGradGradGrad

                          Input orientation:                          
 ---------------------------------------------------------------------
 Center     Atomic      Atomic             Coordinates (Angstroms)
 Number     Number       Type             X           Y           Z
 ---------------------------------------------------------------------
      1          7           0        0.610765   -0.098628   -0.000000
      2          7           0       -0.610765    0.098628    0.000000
      3          1           0        1.069552    0.826742   -0.000000
      4          1           0       -1.069552   -0.826742    0.000000
 ---------------------------------------------------------------------
                    Distance matrix (angstroms):
                    1          2          3          4
     1  N    0.000000
     2  N    1.237355   0.000000
     3  H    1.032858   1.831288   0.000000
     4  H    1.831288   1.032858   2.703659   0.000000
 Stoichiometry    H2N2
 Framework group  C2H[SGH(H2N2)]
 Deg. of freedom     3
 Full point group                 C2H     NOp   4
 Largest Abelian subgroup         C2H     NOp   4
 Largest concise Abelian subgroup C2      NOp   2
                         Standard orientation:                         
 ---------------------------------------------------------------------
 Center     Atomic      Atomic             Coordinates (Angstroms)
 Number     Number       Type             X           Y           Z
 ---------------------------------------------------------------------
      1          7           0        0.000000    0.618677    0.000000
      2          7           0       -0.000000   -0.618677    0.000000
      3          1           0        0.986675    0.924076    0.000000
      4          1           0       -0.986675   -0.924076    0.000000
 ---------------------------------------------------------------------
 Rotational constants (GHZ):         306.4175789          39.6255943          35.0880457
 Basis read from rwf:  (5D, 7F)
 There are    35 symmetry adapted cartesian basis functions of AG  symmetry.
 There are    15 symmetry adapted cartesian basis functions of BG  symmetry.
 There are    15 symmetry adapted cartesian basis functions of AU  symmetry.
 There are    35 symmetry adapted cartesian basis functions of BU  symmetry.
 There are    30 symmetry adapted basis functions of AG  symmetry.
 There are    14 symmetry adapted basis functions of BG  symmetry.
 There are    14 symmetry adapted basis functions of AU  symmetry.
 There are    30 symmetry adapted basis functions of BU  symmetry.
    88 basis functions,   138 primitive gaussians,   100 cartesian basis functions
     8 alpha electrons        8 beta electrons
       nuclear repulsion energy        32.3697670549 Hartrees.
 NAtoms=    4 NActive=    4 NUniq=    2 SFac= 4.00D+00 NAtFMM=   60 NAOKFM=F Big=F
 Integral buffers will be    131072 words long.
 Raffenetti 2 integral format.
 Two-electron integral symmetry is turned on.
 One-electron integrals computed using PRISM.
 NBasis=    88 RedAO= T EigKep=  5.40D-04  NBF=    30    14    14    30
 NBsUse=    88 1.00D-06 EigRej= -1.00D+00 NBFU=    30    14    14    30
 Initial guess from the checkpoint file:  "/wrk/irikura/Gau-15730.chk"
 B after Tr=    -0.000000   -0.000000    0.000000
         Rot=    0.999998   -0.000000   -0.000000   -0.002004 Ang=  -0.23 deg.
 Initial guess orbital symmetries:
       Occupied  (AG) (BU) (AG) (BU) (AG) (BU) (AU) (AG)
       Virtual   (BG) (AG) (BU) (BU) (AG) (AU) (BU) (AG) (AG) (BG)
                 (BU) (AG) (BU) (BU) (BG) (BU) (AU) (AG) (AG) (BU)
                 (AU) (AG) (BG) (AG) (BU) (BU) (AU) (AG) (BG) (BU)
                 (AU) (BU) (AG) (BU) (BG) (AG) (AG) (BU) (AG) (BG)
                 (AU) (AG) (BU) (BG) (AU) (BU) (AG) (BU) (AU) (AG)
                 (BU) (BG) (AG) (AU) (BU) (AG) (BG) (AG) (BU) (BU)
                 (AU) (BG) (AU) (BG) (AG) (BU) (AU) (AG) (BG) (BU)
                 (AU) (AG) (BU) (BG) (AG) (BU) (AG) (BU) (AG) (BU)
 Keep R1 ints in memory in symmetry-blocked form, NReq=13238920.
 Requested convergence on RMS density matrix=1.00D-08 within 128 cycles.
 Requested convergence on MAX density matrix=1.00D-06.
 Requested convergence on             energy=1.00D-06.
 No special actions if energy rises.
 SCF Done:  E(RB3LYP) =  -110.690953781     A.U. after    7 cycles
            NFock=  7  Conv=0.22D-08     -V/T= 2.0035
 Calling FoFJK, ICntrl=      2127 FMM=F ISym2X=1 I1Cent= 0 IOpClX= 0 NMat=1 NMatS=1 NMatT=0.
 ***** Axes restored to original set *****
 -------------------------------------------------------------------
 Center     Atomic                   Forces (Hartrees/Bohr)
 Number     Number              X              Y              Z
 -------------------------------------------------------------------
      1        7          -0.002275874   -0.000086015    0.000000000
      2        7           0.002275874    0.000086015   -0.000000000
      3        1          -0.000690732   -0.000274756    0.000000000
      4        1           0.000690732    0.000274756   -0.000000000
 -------------------------------------------------------------------
 Cartesian Forces:  Max     0.002275874 RMS     0.000978060

 GradGradGradGradGradGradGradGradGradGradGradGradGradGradGradGradGradGrad
 Berny optimization.
 Using GEDIIS/GDIIS optimizer.
 FormGI is forming the generalized inverse of G from B-inverse, IUseBI=4.
 Internal  Forces:  Max     0.002871068 RMS     0.001337563
 Search for a local minimum.
 Step number   2 out of a maximum of   20
 All quantities printed in internal units (Hartrees-Bohrs-Radians)
 Mixed Optimization -- RFO/linear search
 Update second derivatives using D2CorX and points    1    2
 DE= -1.02D-04 DEPred=-9.79D-05 R= 1.04D+00
 TightC=F SS=  1.41D+00  RLast= 2.51D-02 DXNew= 5.0454D-01 7.5203D-02
 Trust test= 1.04D+00 RLast= 2.51D-02 DXMaxT set to 3.00D-01
 The second derivative matrix:
                          R1        R2        R3        A1        A2
           R1           0.69427
           R2          -0.06623   0.39825
           R3          -0.06623  -0.01794   0.39825
           A1           0.00732  -0.01246  -0.01246   0.18899
           A2           0.00732  -0.01246  -0.01246   0.02899   0.18899
           D1           0.00000   0.00000   0.00000  -0.00000  -0.00000
                          D1
           D1           0.03387
 ITU=  1  0
 Use linear search instead of GDIIS.
     Eigenvalues ---    0.03387   0.16000   0.21420   0.35771   0.41619
     Eigenvalues ---    0.72064
 RFO step:  Lambda=-2.43785960D-05 EMin= 3.38680769D-02
 Quartic linear search produced a step of  0.04139.
 Iteration  1 RMS(Cart)=  0.00509644 RMS(Int)=  0.00000605
 Iteration  2 RMS(Cart)=  0.00000377 RMS(Int)=  0.00000000
 Iteration  3 RMS(Cart)=  0.00000000 RMS(Int)=  0.00000000
 ClnCor:  largest displacement from symmetrization is 3.40D-14 for atom     4.
 Variable       Old X    -DE/DX   Delta X   Delta X   Delta X     New X
                                 (Linear)    (Quad)   (Total)
    R1        2.33826  -0.00287  -0.00035  -0.00417  -0.00452   2.33374
    R2        1.95182  -0.00055  -0.00038  -0.00216  -0.00254   1.94928
    R3        1.95182  -0.00055  -0.00038  -0.00216  -0.00254   1.94928
    A1        1.87097  -0.00097   0.00057  -0.00516  -0.00459   1.86638
    A2        1.87097  -0.00097   0.00057  -0.00516  -0.00459   1.86638
    D1        3.14159   0.00000   0.00000   0.00000   0.00000   3.14159
         Item               Value     Threshold  Converged?
 Maximum Force            0.002871     0.000450     NO 
 RMS     Force            0.001338     0.000300     NO 
 Maximum Displacement     0.007039     0.001800     NO 
 RMS     Displacement     0.005097     0.001200     NO 
 Predicted change in Energy=-1.234659D-05
 GradGradGradGradGradGradGradGradGradGradGradGradGradGradGradGradGradGrad

                          Input orientation:                          
 ---------------------------------------------------------------------
 Center     Atomic      Atomic             Coordinates (Angstroms)
 Number     Number       Type             X           Y           Z
 ---------------------------------------------------------------------
      1          7           0        0.609308   -0.100135   -0.000000
      2          7           0       -0.609308    0.100135    0.000000
      3          1           0        1.065827    0.824857   -0.000000
      4          1           0       -1.065827   -0.824857    0.000000
 ---------------------------------------------------------------------
                    Distance matrix (angstroms):
                    1          2          3          4
     1  N    0.000000
     2  N    1.234962   0.000000
     3  H    1.031513   1.825184   0.000000
     4  H    1.825184   1.031513   2.695460   0.000000
 Stoichiometry    H2N2
 Framework group  C2H[SGH(H2N2)]
 Deg. of freedom     3
 Full point group                 C2H     NOp   4
 Largest Abelian subgroup         C2H     NOp   4
 Largest concise Abelian subgroup C2      NOp   2
                         Standard orientation:                         
 ---------------------------------------------------------------------
 Center     Atomic      Atomic             Coordinates (Angstroms)
 Number     Number       Type             X           Y           Z
 ---------------------------------------------------------------------
      1          7           0        0.000000    0.617481   -0.000000
      2          7           0       -0.000000   -0.617481   -0.000000
      3          1           0        0.986780    0.917955   -0.000000
      4          1           0       -0.986780   -0.917955   -0.000000
 ---------------------------------------------------------------------
 Rotational constants (GHZ):         305.9416827          39.8326451          35.2439886
 Basis read from rwf:  (5D, 7F)
 There are    35 symmetry adapted cartesian basis functions of AG  symmetry.
 There are    15 symmetry adapted cartesian basis functions of BG  symmetry.
 There are    15 symmetry adapted cartesian basis functions of AU  symmetry.
 There are    35 symmetry adapted cartesian basis functions of BU  symmetry.
 There are    30 symmetry adapted basis functions of AG  symmetry.
 There are    14 symmetry adapted basis functions of BG  symmetry.
 There are    14 symmetry adapted basis functions of AU  symmetry.
 There are    30 symmetry adapted basis functions of BU  symmetry.
    88 basis functions,   138 primitive gaussians,   100 cartesian basis functions
     8 alpha electrons        8 beta electrons
       nuclear repulsion energy        32.4338437388 Hartrees.
 NAtoms=    4 NActive=    4 NUniq=    2 SFac= 4.00D+00 NAtFMM=   60 NAOKFM=F Big=F
 Integral buffers will be    131072 words long.
 Raffenetti 2 integral format.
 Two-electron integral symmetry is turned on.
 One-electron integrals computed using PRISM.
 NBasis=    88 RedAO= T EigKep=  5.36D-04  NBF=    30    14    14    30
 NBsUse=    88 1.00D-06 EigRej= -1.00D+00 NBFU=    30    14    14    30
 Initial guess from the checkpoint file:  "/wrk/irikura/Gau-15730.chk"
 B after Tr=     0.000000    0.000000   -0.000000
         Rot=    1.000000   -0.000000    0.000000    0.000683 Ang=   0.08 deg.
 Initial guess orbital symmetries:
       Occupied  (AG) (BU) (AG) (BU) (AG) (BU) (AU) (AG)
       Virtual   (BG) (AG) (BU) (BU) (AG) (AU) (BU) (AG) (AG) (BG)
                 (BU) (AG) (BU) (BU) (BG) (BU) (AU) (AG) (AG) (BU)
                 (AU) (AG) (BG) (AG) (BU) (BU) (AU) (AG) (BG) (BU)
                 (AU) (BU) (AG) (BU) (BG) (AG) (AG) (AG) (BU) (BG)
                 (AU) (AG) (BU) (BG) (AU) (BU) (AG) (AU) (BU) (AG)
                 (BU) (BG) (AG) (AU) (BU) (AG) (BG) (AG) (BU) (BU)
                 (AU) (BG) (AU) (BG) (AG) (BU) (AU) (AG) (BG) (BU)
                 (AU) (AG) (BU) (BG) (AG) (BU) (AG) (BU) (AG) (BU)
 Keep R1 ints in memory in symmetry-blocked form, NReq=13238920.
 Requested convergence on RMS density matrix=1.00D-08 within 128 cycles.
 Requested convergence on MAX density matrix=1.00D-06.
 Requested convergence on             energy=1.00D-06.
 No special actions if energy rises.
 SCF Done:  E(RB3LYP) =  -110.690957375     A.U. after    7 cycles
            NFock=  7  Conv=0.18D-08     -V/T= 2.0034
 Calling FoFJK, ICntrl=      2127 FMM=F ISym2X=1 I1Cent= 0 IOpClX= 0 NMat=1 NMatS=1 NMatT=0.
 ***** Axes restored to original set *****
 -------------------------------------------------------------------
 Center     Atomic                   Forces (Hartrees/Bohr)
 Number     Number              X              Y              Z
 -------------------------------------------------------------------
      1        7           0.000932268    0.000098080   -0.000000000
      2        7          -0.000932268   -0.000098080    0.000000000
      3        1           0.000659995    0.000367267   -0.000000000
      4        1          -0.000659995   -0.000367267    0.000000000
 -------------------------------------------------------------------
 Cartesian Forces:  Max     0.000932268 RMS     0.000491464

 GradGradGradGradGradGradGradGradGradGradGradGradGradGradGradGradGradGrad
 Berny optimization.
 Using GEDIIS/GDIIS optimizer.
 FormGI is forming the generalized inverse of G from B-inverse, IUseBI=4.
 Internal  Forces:  Max     0.001495793 RMS     0.000857394
 Search for a local minimum.
 Step number   3 out of a maximum of   20
 All quantities printed in internal units (Hartrees-Bohrs-Radians)
 Mixed Optimization -- En-DIIS/RFO-DIIS
 Update second derivatives using D2CorX and points    1    2    3
 DE= -3.59D-06 DEPred=-1.23D-05 R= 2.91D-01
 Trust test= 2.91D-01 RLast= 8.69D-03 DXMaxT set to 3.00D-01
 The second derivative matrix:
                          R1        R2        R3        A1        A2
           R1           0.79228
           R2          -0.01791   0.41940
           R3          -0.01791   0.00321   0.41940
           A1           0.09531   0.01980   0.01980   0.21884
           A2           0.09531   0.01980   0.01980   0.05884   0.21884
           D1           0.00000   0.00000   0.00000  -0.00000  -0.00000
                          D1
           D1           0.03387
 ITU=  0  1  0
 Use linear search instead of GDIIS.
     Eigenvalues ---    0.03387   0.16000   0.23399   0.41619   0.43257
     Eigenvalues ---    0.82602
 RFO step:  Lambda=-2.97406237D-07 EMin= 3.38680769D-02
 Quartic linear search produced a step of -0.41452.
 Iteration  1 RMS(Cart)=  0.00234847 RMS(Int)=  0.00000132
 Iteration  2 RMS(Cart)=  0.00000082 RMS(Int)=  0.00000000
 ClnCor:  largest displacement from symmetrization is 1.44D-13 for atom     2.
 Variable       Old X    -DE/DX   Delta X   Delta X   Delta X     New X
                                 (Linear)    (Quad)   (Total)
    R1        2.33374   0.00150   0.00187  -0.00050   0.00138   2.33512
    R2        1.94928   0.00062   0.00105   0.00025   0.00130   1.95058
    R3        1.94928   0.00062   0.00105   0.00025   0.00130   1.95058
    A1        1.86638   0.00084   0.00190   0.00044   0.00234   1.86871
    A2        1.86638   0.00084   0.00190   0.00044   0.00234   1.86871
    D1        3.14159   0.00000   0.00000   0.00000   0.00000   3.14159
         Item               Value     Threshold  Converged?
 Maximum Force            0.001496     0.000450     NO 
 RMS     Force            0.000857     0.000300     NO 
 Maximum Displacement     0.003307     0.001800     NO 
 RMS     Displacement     0.002348     0.001200     NO 
 Predicted change in Energy=-3.815638D-06
 GradGradGradGradGradGradGradGradGradGradGradGradGradGradGradGradGradGrad

                          Input orientation:                          
 ---------------------------------------------------------------------
 Center     Atomic      Atomic             Coordinates (Angstroms)
 Number     Number       Type             X           Y           Z
 ---------------------------------------------------------------------
      1          7           0        0.609798   -0.099396   -0.000000
      2          7           0       -0.609798    0.099396    0.000000
      3          1           0        1.067577    0.825743   -0.000000
      4          1           0       -1.067577   -0.825743    0.000000
 ---------------------------------------------------------------------
                    Distance matrix (angstroms):
                    1          2          3          4
     1  N    0.000000
     2  N    1.235691   0.000000
     3  H    1.032203   1.827886   0.000000
     4  H    1.827886   1.032203   2.699312   0.000000
 Stoichiometry    H2N2
 Framework group  C2H[SGH(H2N2)]
 Deg. of freedom     3
 Full point group                 C2H     NOp   4
 Largest Abelian subgroup         C2H     NOp   4
 Largest concise Abelian subgroup C2      NOp   2
                         Standard orientation:                         
 ---------------------------------------------------------------------
 Center     Atomic      Atomic             Coordinates (Angstroms)
 Number     Number       Type             X           Y           Z
 ---------------------------------------------------------------------
      1          7           0        0.000000    0.617846    0.000000
      2          7           0       -0.000000   -0.617846    0.000000
      3          1           0        0.986734    0.920830    0.000000
      4          1           0       -0.986734   -0.920830    0.000000
 ---------------------------------------------------------------------
 Rotational constants (GHZ):         306.1986823          39.7559415          35.1873225
 Basis read from rwf:  (5D, 7F)
 There are    35 symmetry adapted cartesian basis functions of AG  symmetry.
 There are    15 symmetry adapted cartesian basis functions of BG  symmetry.
 There are    15 symmetry adapted cartesian basis functions of AU  symmetry.
 There are    35 symmetry adapted cartesian basis functions of BU  symmetry.
 There are    30 symmetry adapted basis functions of AG  symmetry.
 There are    14 symmetry adapted basis functions of BG  symmetry.
 There are    14 symmetry adapted basis functions of AU  symmetry.
 There are    30 symmetry adapted basis functions of BU  symmetry.
    88 basis functions,   138 primitive gaussians,   100 cartesian basis functions
     8 alpha electrons        8 beta electrons
       nuclear repulsion energy        32.4103677064 Hartrees.
 NAtoms=    4 NActive=    4 NUniq=    2 SFac= 4.00D+00 NAtFMM=   60 NAOKFM=F Big=F
 Integral buffers will be    131072 words long.
 Raffenetti 2 integral format.
 Two-electron integral symmetry is turned on.
 One-electron integrals computed using PRISM.
 NBasis=    88 RedAO= T EigKep=  5.37D-04  NBF=    30    14    14    30
 NBsUse=    88 1.00D-06 EigRej= -1.00D+00 NBFU=    30    14    14    30
 Initial guess from the checkpoint file:  "/wrk/irikura/Gau-15730.chk"
 B after Tr=     0.000000    0.000000    0.000000
         Rot=    1.000000    0.000000   -0.000000   -0.000321 Ang=  -0.04 deg.
 Initial guess orbital symmetries:
       Occupied  (AG) (BU) (AG) (BU) (AG) (BU) (AU) (AG)
       Virtual   (BG) (AG) (BU) (BU) (AG) (AU) (BU) (AG) (AG) (BG)
                 (BU) (AG) (BU) (BU) (BG) (BU) (AU) (AG) (AG) (BU)
                 (AU) (AG) (BG) (AG) (BU) (BU) (AU) (AG) (BG) (BU)
                 (AU) (BU) (AG) (BU) (BG) (AG) (AG) (AG) (BU) (BG)
                 (AU) (AG) (BU) (BG) (AU) (BU) (AG) (AU) (BU) (AG)
                 (BU) (BG) (AG) (AU) (BU) (AG) (BG) (AG) (BU) (BU)
                 (AU) (BG) (AU) (BG) (BU) (AG) (AU) (AG) (BG) (BU)
                 (AU) (AG) (BU) (BG) (AG) (BU) (AG) (BU) (AG) (BU)
 Keep R1 ints in memory in symmetry-blocked form, NReq=13238920.
 Requested convergence on RMS density matrix=1.00D-08 within 128 cycles.
 Requested convergence on MAX density matrix=1.00D-06.
 Requested convergence on             energy=1.00D-06.
 No special actions if energy rises.
 SCF Done:  E(RB3LYP) =  -110.690961187     A.U. after    6 cycles
            NFock=  6  Conv=0.67D-08     -V/T= 2.0034
 Calling FoFJK, ICntrl=      2127 FMM=F ISym2X=1 I1Cent= 0 IOpClX= 0 NMat=1 NMatS=1 NMatT=0.
 ***** Axes restored to original set *****
 -------------------------------------------------------------------
 Center     Atomic                   Forces (Hartrees/Bohr)
 Number     Number              X              Y              Z
 -------------------------------------------------------------------
      1        7          -0.000048634   -0.000040628    0.000000000
      2        7           0.000048634    0.000040628   -0.000000000
      3        1           0.000015633    0.000039985   -0.000000000
      4        1          -0.000015633   -0.000039985    0.000000000
 -------------------------------------------------------------------
 Cartesian Forces:  Max     0.000048634 RMS     0.000031249

 GradGradGradGradGradGradGradGradGradGradGradGradGradGradGradGradGradGrad
 Berny optimization.
 Using GEDIIS/GDIIS optimizer.
 FormGI is forming the generalized inverse of G from B-inverse, IUseBI=4.
 Internal  Forces:  Max     0.000042725 RMS     0.000028285
 Search for a local minimum.
 Step number   4 out of a maximum of   20
 All quantities printed in internal units (Hartrees-Bohrs-Radians)
 Mixed Optimization -- En-DIIS/RFO-DIIS
 Swapping is turned off.
 Update second derivatives using D2CorX and points    1    2    3    4
 DE= -3.81D-06 DEPred=-3.82D-06 R= 9.99D-01
 TightC=F SS=  1.41D+00  RLast= 4.03D-03 DXNew= 5.0454D-01 1.2092D-02
 Trust test= 9.99D-01 RLast= 4.03D-03 DXMaxT set to 3.00D-01
 The second derivative matrix:
                          R1        R2        R3        A1        A2
           R1           0.82634
           R2          -0.00750   0.41316
           R3          -0.00750  -0.00303   0.41316
           A1           0.08731   0.01160   0.01160   0.22821
           A2           0.08731   0.01160   0.01160   0.06821   0.22821
           D1           0.00000   0.00000   0.00000  -0.00000  -0.00000
                          D1
           D1           0.03387
 ITU=  1  0  1  0
     Eigenvalues ---    0.03387   0.16000   0.26478   0.41434   0.41619
     Eigenvalues ---    0.85376
 En-DIIS/RFO-DIIS/Sim-DIIS IScMMF=       -3 using points:     4    3
 RFO step:  Lambda=-9.95908895D-09.
 DidBck=F Rises=F RFO-DIIS coefs:    1.00759   -0.00759
 Iteration  1 RMS(Cart)=  0.00004471 RMS(Int)=  0.00000000
 Iteration  2 RMS(Cart)=  0.00000000 RMS(Int)=  0.00000000
 ClnCor:  largest displacement from symmetrization is 1.36D-13 for atom     2.
 Variable       Old X    -DE/DX   Delta X   Delta X   Delta X     New X
                                 (Linear)    (Quad)   (Total)
    R1        2.33512  -0.00003   0.00001  -0.00004  -0.00003   2.33509
    R2        1.95058   0.00004   0.00001   0.00009   0.00010   1.95069
    R3        1.95058   0.00004   0.00001   0.00009   0.00010   1.95069
    A1        1.86871  -0.00001   0.00002  -0.00004  -0.00002   1.86869
    A2        1.86871  -0.00001   0.00002  -0.00004  -0.00002   1.86869
    D1        3.14159  -0.00000   0.00000  -0.00000   0.00000   3.14159
         Item               Value     Threshold  Converged?
 Maximum Force            0.000043     0.000450     YES
 RMS     Force            0.000028     0.000300     YES
 Maximum Displacement     0.000052     0.001800     YES
 RMS     Displacement     0.000045     0.001200     YES
 Predicted change in Energy=-5.166208D-09
 Optimization completed.
    -- Stationary point found.
                           ----------------------------
                           !   Optimized Parameters   !
                           ! (Angstroms and Degrees)  !
 --------------------------                            --------------------------
 ! Name  Definition              Value          Derivative Info.                !
 --------------------------------------------------------------------------------
 ! R1    R(1,2)                  1.2357         -DE/DX =    0.0                 !
 ! R2    R(1,3)                  1.0322         -DE/DX =    0.0                 !
 ! R3    R(2,4)                  1.0322         -DE/DX =    0.0                 !
 ! A1    A(2,1,3)              107.0695         -DE/DX =    0.0                 !
 ! A2    A(1,2,4)              107.0695         -DE/DX =    0.0                 !
 ! D1    D(3,1,2,4)            180.0            -DE/DX =    0.0                 !
 --------------------------------------------------------------------------------
 GradGradGradGradGradGradGradGradGradGradGradGradGradGradGradGradGradGrad

                          Input orientation:                          
 ---------------------------------------------------------------------
 Center     Atomic      Atomic             Coordinates (Angstroms)
 Number     Number       Type             X           Y           Z
 ---------------------------------------------------------------------
      1          7           0        0.609798   -0.099396   -0.000000
      2          7           0       -0.609798    0.099396    0.000000
      3          1           0        1.067577    0.825743   -0.000000
      4          1           0       -1.067577   -0.825743    0.000000
 ---------------------------------------------------------------------
                    Distance matrix (angstroms):
                    1          2          3          4
     1  N    0.000000
     2  N    1.235691   0.000000
     3  H    1.032203   1.827886   0.000000
     4  H    1.827886   1.032203   2.699312   0.000000
 Stoichiometry    H2N2
 Framework group  C2H[SGH(H2N2)]
 Deg. of freedom     3
 Full point group                 C2H     NOp   4
 Largest Abelian subgroup         C2H     NOp   4
 Largest concise Abelian subgroup C2      NOp   2
                         Standard orientation:                         
 ---------------------------------------------------------------------
 Center     Atomic      Atomic             Coordinates (Angstroms)
 Number     Number       Type             X           Y           Z
 ---------------------------------------------------------------------
      1          7           0        0.000000    0.617846    0.000000
      2          7           0       -0.000000   -0.617846   -0.000000
      3          1           0        0.986734    0.920830    0.000000
      4          1           0       -0.986734   -0.920830   -0.000000
 ---------------------------------------------------------------------
 Rotational constants (GHZ):         306.1986823          39.7559415          35.1873225

 **********************************************************************

            Population analysis using the SCF Density.

 **********************************************************************

 Orbital symmetries:
       Occupied  (AG) (BU) (AG) (BU) (AG) (BU) (AU) (AG)
       Virtual   (BG) (AG) (BU) (BU) (AG) (AU) (BU) (AG) (AG) (BG)
                 (BU) (AG) (BU) (BU) (BG) (BU) (AU) (AG) (AG) (BU)
                 (AU) (AG) (BG) (AG) (BU) (BU) (AU) (AG) (BG) (BU)
                 (AU) (BU) (AG) (BU) (BG) (AG) (AG) (AG) (BU) (BG)
                 (AU) (AG) (BU) (BG) (AU) (BU) (AG) (AU) (BU) (AG)
                 (BU) (BG) (AG) (AU) (BU) (AG) (BG) (AG) (BU) (BU)
                 (AU) (BG) (AU) (BG) (AG) (BU) (AU) (AG) (BG) (BU)
                 (AU) (AG) (BU) (BG) (AG) (BU) (AG) (BU) (AG) (BU)
 The electronic state is 1-AG.
 Alpha  occ. eigenvalues --  -14.37899 -14.37843  -1.04547  -0.70750  -0.50120
 Alpha  occ. eigenvalues --   -0.45186  -0.40746  -0.25287
 Alpha virt. eigenvalues --   -0.06887   0.02335   0.03127   0.18586   0.23215
 Alpha virt. eigenvalues --    0.24262   0.29771   0.30343   0.31788   0.34454
 Alpha virt. eigenvalues --    0.36632   0.39070   0.49293   0.56475   0.70132
 Alpha virt. eigenvalues --    0.79253   0.81375   0.94873   1.06849   1.08032
 Alpha virt. eigenvalues --    1.14985   1.23225   1.38824   1.40840   1.47111
 Alpha virt. eigenvalues --    1.53100   1.64567   1.69392   1.73727   1.74792
 Alpha virt. eigenvalues --    1.78247   1.81143   2.00692   2.05396   2.12608
 Alpha virt. eigenvalues --    2.30806   2.52926   2.89194   2.89934   3.17340
 Alpha virt. eigenvalues --    3.29891   3.42022   3.45424   3.51671   3.52762
 Alpha virt. eigenvalues --    3.64410   3.77651   3.78149   3.78486   4.10806
 Alpha virt. eigenvalues --    4.13149   4.17396   4.26260   4.33378   4.34851
 Alpha virt. eigenvalues --    4.42150   4.43184   4.61906   4.66394   4.74584
 Alpha virt. eigenvalues --    4.84266   5.03289   5.18658   5.23507   5.26259
 Alpha virt. eigenvalues --    5.26366   5.29673   5.39214   5.51633   5.54249
 Alpha virt. eigenvalues --    5.58766   5.70668   5.71986   5.88465   6.07780
 Alpha virt. eigenvalues --    6.38887   6.42533   6.55424   6.65557   7.82177
          Condensed to atoms (all electrons):
               1          2          3          4
     1  N    6.560496   0.376139   0.301410  -0.099357
     2  N    0.376139   6.560496  -0.099357   0.301410
     3  H    0.301410  -0.099357   0.639497   0.019762
     4  H   -0.099357   0.301410   0.019762   0.639497
 Mulliken charges:
               1
     1  N   -0.138688
     2  N   -0.138688
     3  H    0.138688
     4  H    0.138688
 Sum of Mulliken charges =  -0.00000
 Mulliken charges with hydrogens summed into heavy atoms:
               1
     1  N   -0.000000
     2  N   -0.000000
 Electronic spatial extent (au):  <R**2>=             58.9576
 Charge=             -0.0000 electrons
 Dipole moment (field-independent basis, Debye):
    X=             -0.0000    Y=             -0.0000    Z=             -0.0000  Tot=              0.0000
 Quadrupole moment (field-independent basis, Debye-Ang):
   XX=            -10.6257   YY=            -13.2417   ZZ=            -12.2641
   XY=              3.5631   XZ=             -0.0000   YZ=             -0.0000
 Traceless Quadrupole moment (field-independent basis, Debye-Ang):
   XX=              1.4181   YY=             -1.1978   ZZ=             -0.2203
   XY=              3.5631   XZ=             -0.0000   YZ=             -0.0000
 Octapole moment (field-independent basis, Debye-Ang**2):
  XXX=             -0.0000  YYY=             -0.0000  ZZZ=             -0.0000  XYY=             -0.0000
  XXY=             -0.0000  XXZ=             -0.0000  XZZ=              0.0000  YZZ=             -0.0000
  YYZ=             -0.0000  XYZ=             -0.0000
 Hexadecapole moment (field-independent basis, Debye-Ang**3):
 XXXX=            -16.2041 YYYY=            -46.7790 ZZZZ=            -11.4594 XXXY=              0.6166
 XXXZ=             -0.0000 YYYX=              1.7267 YYYZ=             -0.0000 ZZZX=             -0.0000
 ZZZY=             -0.0000 XXYY=             -9.5441 XXZZ=             -5.1199 YYZZ=             -9.4863
 XXYZ=             -0.0000 YYXZ=             -0.0000 ZZXY=             -0.5097
 N-N= 3.241036770638D+01 E-N=-3.238375694703D+02  KE= 1.103146322565D+02
 Symmetry AG   KE= 5.575461091184D+01
 Symmetry BG   KE=-7.691467359319D-20
 Symmetry AU   KE= 3.189049734625D+00
 Symmetry BU   KE= 5.137097161007D+01
 1\1\GINC-GAMBA\FOpt\RB3LYP\Gen\H2N2\IRIKURA\30-Aug-2022\0\\# b3lyp/gen
  opt freq\\trans-diazene, B3LYP/pcseg-2\\0,1\N,0.6097980985,-0.0993962
 063,0.\N,-0.6097980985,0.0993962063,0.\H,1.067576794,0.8257429329,0.\H
 ,-1.067576794,-0.8257429329,0.\\Version=ES64L-G16RevB.01\State=1-AG\HF
 =-110.6909612\RMSD=6.666e-09\RMSF=3.125e-05\Dipole=0.,0.,0.\Quadrupole
 =0.0010267,0.1627504,-0.1637771,2.8208004,0.,0.\PG=C02H [SGH(H2N2)]\\@


 YOU KNOW YOU'RE A TEACHER WHEN YOU SAY 2, WRITE 3, AND MEAN 4.
 -- RONALD ANSTROM, HIGH SCHOOL TEACHER, UNDERWOOD, N.D. 1974
 Job cpu time:       0 days  0 hours  0 minutes 58.6 seconds.
 Elapsed time:       0 days  0 hours  0 minutes 11.2 seconds.
 File lengths (MBytes):  RWF=     10 Int=      0 D2E=      0 Chk=      2 Scr=      1
 Normal termination of Gaussian 16 at Tue Aug 30 12:12:43 2022.
 Link1:  Proceeding to internal job step number  2.
 ------------------------------------------------------------------
 #N Geom=AllCheck Guess=TCheck SCRF=Check GenChk RB3LYP/ChkBas Freq
 ------------------------------------------------------------------
 1/10=4,29=7,30=1,38=1,40=1/1,3;
 2/12=2,40=1/2;
 3/5=7,6=2,11=2,14=-4,25=1,30=1,67=1,70=2,71=2,74=-5,82=7,116=1,140=1/1,2,3;
 4/5=101/1;
 5/5=2,38=6,98=1/2;
 8/6=4,10=90,11=11/1;
 11/6=1,8=1,9=11,15=111,16=1/1,2,10;
 10/6=1/2;
 6/7=2,8=2,9=2,10=2,28=1/1;
 7/8=1,10=1,25=1/1,2,3,16;
 1/10=4,30=1/3;
 99//99;
 Structure from the checkpoint file:  "/wrk/irikura/Gau-15730.chk"
 ----------------------------
 trans-diazene, B3LYP/pcseg-2
 ----------------------------
 Charge =  0 Multiplicity = 1
 Redundant internal coordinates found in file.  (old form).
 N,0,0.6097980985,-0.0993962063,0.
 N,0,-0.6097980985,0.0993962063,0.
 H,0,1.067576794,0.8257429329,0.
 H,0,-1.067576794,-0.8257429329,0.
 Recover connectivity data from disk.

 GradGradGradGradGradGradGradGradGradGradGradGradGradGradGradGradGradGrad
 Berny optimization.
 Initialization pass.
                           ----------------------------
                           !    Initial Parameters    !
                           ! (Angstroms and Degrees)  !
 --------------------------                            --------------------------
 ! Name  Definition              Value          Derivative Info.                !
 --------------------------------------------------------------------------------
 ! R1    R(1,2)                  1.2357         calculate D2E/DX2 analytically  !
 ! R2    R(1,3)                  1.0322         calculate D2E/DX2 analytically  !
 ! R3    R(2,4)                  1.0322         calculate D2E/DX2 analytically  !
 ! A1    A(2,1,3)              107.0695         calculate D2E/DX2 analytically  !
 ! A2    A(1,2,4)              107.0695         calculate D2E/DX2 analytically  !
 ! D1    D(3,1,2,4)            180.0            calculate D2E/DX2 analytically  !
 --------------------------------------------------------------------------------
 Trust Radius=3.00D-01 FncErr=1.00D-07 GrdErr=1.00D-07 EigMax=2.50D+02 EigMin=1.00D-04
 Number of steps in this run=      2 maximum allowed number of steps=      2.
 GradGradGradGradGradGradGradGradGradGradGradGradGradGradGradGradGradGrad

                          Input orientation:                          
 ---------------------------------------------------------------------
 Center     Atomic      Atomic             Coordinates (Angstroms)
 Number     Number       Type             X           Y           Z
 ---------------------------------------------------------------------
      1          7           0        0.609798   -0.099396   -0.000000
      2          7           0       -0.609798    0.099396    0.000000
      3          1           0        1.067577    0.825743   -0.000000
      4          1           0       -1.067577   -0.825743    0.000000
 ---------------------------------------------------------------------
                    Distance matrix (angstroms):
                    1          2          3          4
     1  N    0.000000
     2  N    1.235691   0.000000
     3  H    1.032203   1.827886   0.000000
     4  H    1.827886   1.032203   2.699312   0.000000
 Stoichiometry    H2N2
 Framework group  C2H[SGH(H2N2)]
 Deg. of freedom     3
 Full point group                 C2H     NOp   4
 Largest Abelian subgroup         C2H     NOp   4
 Largest concise Abelian subgroup C2      NOp   2
                         Standard orientation:                         
 ---------------------------------------------------------------------
 Center     Atomic      Atomic             Coordinates (Angstroms)
 Number     Number       Type             X           Y           Z
 ---------------------------------------------------------------------
      1          7           0        0.000000    0.617846    0.000000
      2          7           0       -0.000000   -0.617846    0.000000
      3          1           0        0.986734    0.920830    0.000000
      4          1           0       -0.986734   -0.920830    0.000000
 ---------------------------------------------------------------------
 Rotational constants (GHZ):         306.1986823          39.7559415          35.1873225
 Basis read from chk: "/wrk/irikura/Gau-15730.chk" (5D, 7F)
 There are    35 symmetry adapted cartesian basis functions of AG  symmetry.
 There are    15 symmetry adapted cartesian basis functions of BG  symmetry.
 There are    15 symmetry adapted cartesian basis functions of AU  symmetry.
 There are    35 symmetry adapted cartesian basis functions of BU  symmetry.
 There are    30 symmetry adapted basis functions of AG  symmetry.
 There are    14 symmetry adapted basis functions of BG  symmetry.
 There are    14 symmetry adapted basis functions of AU  symmetry.
 There are    30 symmetry adapted basis functions of BU  symmetry.
    88 basis functions,   138 primitive gaussians,   100 cartesian basis functions
     8 alpha electrons        8 beta electrons
       nuclear repulsion energy        32.4103677064 Hartrees.
 NAtoms=    4 NActive=    4 NUniq=    2 SFac= 4.00D+00 NAtFMM=   60 NAOKFM=F Big=F
 Integral buffers will be    131072 words long.
 Raffenetti 2 integral format.
 Two-electron integral symmetry is turned on.
 One-electron integrals computed using PRISM.
 NBasis=    88 RedAO= T EigKep=  5.37D-04  NBF=    30    14    14    30
 NBsUse=    88 1.00D-06 EigRej= -1.00D+00 NBFU=    30    14    14    30
 Initial guess from the checkpoint file:  "/wrk/irikura/Gau-15730.chk"
 B after Tr=    -0.000000    0.000000    0.000000
         Rot=    1.000000   -0.000000    0.000000    0.000000 Ang=   0.00 deg.
 Initial guess orbital symmetries:
       Occupied  (AG) (BU) (AG) (BU) (AG) (BU) (AU) (AG)
       Virtual   (BG) (AG) (BU) (BU) (AG) (AU) (BU) (AG) (AG) (BG)
                 (BU) (AG) (BU) (BU) (BG) (BU) (AU) (AG) (AG) (BU)
                 (AU) (AG) (BG) (AG) (BU) (BU) (AU) (AG) (BG) (BU)
                 (AU) (BU) (AG) (BU) (BG) (AG) (AG) (AG) (BU) (BG)
                 (AU) (AG) (BU) (BG) (AU) (BU) (AG) (AU) (BU) (AG)
                 (BU) (BG) (AG) (AU) (BU) (AG) (BG) (AG) (BU) (BU)
                 (AU) (BG) (AU) (BG) (AG) (BU) (AU) (AG) (BG) (BU)
                 (AU) (AG) (BU) (BG) (AG) (BU) (AG) (BU) (AG) (BU)
 Keep R1 ints in memory in symmetry-blocked form, NReq=13238920.
 Requested convergence on RMS density matrix=1.00D-08 within 128 cycles.
 Requested convergence on MAX density matrix=1.00D-06.
 Requested convergence on             energy=1.00D-06.
 No special actions if energy rises.
 SCF Done:  E(RB3LYP) =  -110.690961187     A.U. after    1 cycles
            NFock=  1  Conv=0.40D-09     -V/T= 2.0034
 DoSCS=F DFT=T ScalE2(SS,OS)=  1.000000  1.000000
 Range of M.O.s used for correlation:     1    88
 NBasis=    88 NAE=     8 NBE=     8 NFC=     0 NFV=     0
 NROrb=     88 NOA=     8 NOB=     8 NVA=    80 NVB=    80

 **** Warning!!: The largest alpha MO coefficient is  0.21677883D+02

 Symmetrizing basis deriv contribution to polar:
 IMax=3 JMax=2 DiffMx= 0.00D+00
 G2DrvN: will do     5 centers at a time, making    1 passes.
 Calling FoFCou, ICntrl=  3107 FMM=F I1Cent=   0 AccDes= 0.00D+00.
 End of G2Drv F.D. properties file   721 does not exist.
 End of G2Drv F.D. properties file   722 does not exist.
 End of G2Drv F.D. properties file   788 does not exist.
          IDoAtm=1111
          Differentiating once with respect to electric field.
                with respect to dipole field.
          Differentiating once with respect to nuclear coordinates.
 Keep R1 ints in memory in symmetry-blocked form, NReq=13221807.
          There are     9 degrees of freedom in the 1st order CPHF.  IDoFFX=4 NUNeed=     9.
      9 vectors produced by pass  0 Test12= 7.11D-15 1.11D-08 XBig12= 1.85D+01 3.56D+00.
 AX will form     9 AO Fock derivatives at one time.
      9 vectors produced by pass  1 Test12= 7.11D-15 1.11D-08 XBig12= 8.13D+00 7.85D-01.
      9 vectors produced by pass  2 Test12= 7.11D-15 1.11D-08 XBig12= 2.85D-01 1.78D-01.
      9 vectors produced by pass  3 Test12= 7.11D-15 1.11D-08 XBig12= 1.80D-03 1.09D-02.
      9 vectors produced by pass  4 Test12= 7.11D-15 1.11D-08 XBig12= 4.17D-06 4.76D-04.
      8 vectors produced by pass  5 Test12= 7.11D-15 1.11D-08 XBig12= 5.72D-09 1.60D-05.
      5 vectors produced by pass  6 Test12= 7.11D-15 1.11D-08 XBig12= 6.07D-12 8.63D-07.
      2 vectors produced by pass  7 Test12= 7.11D-15 1.11D-08 XBig12= 6.32D-15 2.50D-08.
 InvSVY:  IOpt=1 It=  1 EMax= 1.78D-15
 Solved reduced A of dimension    60 with     9 vectors.
 Isotropic polarizability for W=    0.000000       16.64 Bohr**3.
 End of Minotr F.D. properties file   721 does not exist.
 End of Minotr F.D. properties file   722 does not exist.
 End of Minotr F.D. properties file   788 does not exist.

 **********************************************************************

            Population analysis using the SCF Density.

 **********************************************************************

 Orbital symmetries:
       Occupied  (AG) (BU) (AG) (BU) (AG) (BU) (AU) (AG)
       Virtual   (BG) (AG) (BU) (BU) (AG) (AU) (BU) (AG) (AG) (BG)
                 (BU) (AG) (BU) (BU) (BG) (BU) (AU) (AG) (AG) (BU)
                 (AU) (AG) (BG) (AG) (BU) (BU) (AU) (AG) (BG) (BU)
                 (AU) (BU) (AG) (BU) (BG) (AG) (AG) (AG) (BU) (BG)
                 (AU) (AG) (BU) (BG) (AU) (BU) (AG) (AU) (BU) (AG)
                 (BU) (BG) (AG) (AU) (BU) (AG) (BG) (AG) (BU) (BU)
                 (AU) (BG) (AU) (BG) (AG) (BU) (AU) (AG) (BG) (BU)
                 (AU) (AG) (BU) (BG) (AG) (BU) (AG) (BU) (AG) (BU)
 The electronic state is 1-AG.
 Alpha  occ. eigenvalues --  -14.37899 -14.37843  -1.04547  -0.70750  -0.50120
 Alpha  occ. eigenvalues --   -0.45186  -0.40746  -0.25287
 Alpha virt. eigenvalues --   -0.06887   0.02335   0.03127   0.18586   0.23215
 Alpha virt. eigenvalues --    0.24262   0.29771   0.30343   0.31788   0.34454
 Alpha virt. eigenvalues --    0.36632   0.39070   0.49293   0.56475   0.70132
 Alpha virt. eigenvalues --    0.79253   0.81375   0.94873   1.06849   1.08032
 Alpha virt. eigenvalues --    1.14985   1.23225   1.38824   1.40840   1.47111
 Alpha virt. eigenvalues --    1.53100   1.64567   1.69392   1.73727   1.74792
 Alpha virt. eigenvalues --    1.78247   1.81143   2.00692   2.05396   2.12608
 Alpha virt. eigenvalues --    2.30806   2.52926   2.89194   2.89934   3.17340
 Alpha virt. eigenvalues --    3.29891   3.42022   3.45424   3.51671   3.52762
 Alpha virt. eigenvalues --    3.64410   3.77651   3.78149   3.78486   4.10806
 Alpha virt. eigenvalues --    4.13149   4.17396   4.26260   4.33378   4.34851
 Alpha virt. eigenvalues --    4.42150   4.43184   4.61906   4.66394   4.74584
 Alpha virt. eigenvalues --    4.84266   5.03289   5.18658   5.23507   5.26259
 Alpha virt. eigenvalues --    5.26366   5.29673   5.39214   5.51633   5.54249
 Alpha virt. eigenvalues --    5.58766   5.70668   5.71986   5.88465   6.07780
 Alpha virt. eigenvalues --    6.38887   6.42533   6.55424   6.65557   7.82177
          Condensed to atoms (all electrons):
               1          2          3          4
     1  N    6.560496   0.376139   0.301410  -0.099357
     2  N    0.376139   6.560496  -0.099357   0.301410
     3  H    0.301410  -0.099357   0.639497   0.019762
     4  H   -0.099357   0.301410   0.019762   0.639497
 Mulliken charges:
               1
     1  N   -0.138688
     2  N   -0.138688
     3  H    0.138688
     4  H    0.138688
 Sum of Mulliken charges =   0.00000
 Mulliken charges with hydrogens summed into heavy atoms:
               1
     1  N    0.000000
     2  N    0.000000
 APT charges:
               1
     1  N   -0.098137
     2  N   -0.098137
     3  H    0.098137
     4  H    0.098137
 Sum of APT charges =  -0.00000
 APT charges with hydrogens summed into heavy atoms:
               1
     1  N   -0.000000
     2  N   -0.000000
 Electronic spatial extent (au):  <R**2>=             58.9576
 Charge=              0.0000 electrons
 Dipole moment (field-independent basis, Debye):
    X=              0.0000    Y=              0.0000    Z=             -0.0000  Tot=              0.0000
 Quadrupole moment (field-independent basis, Debye-Ang):
   XX=            -10.6257   YY=            -13.2417   ZZ=            -12.2641
   XY=              3.5631   XZ=              0.0000   YZ=             -0.0000
 Traceless Quadrupole moment (field-independent basis, Debye-Ang):
   XX=              1.4181   YY=             -1.1978   ZZ=             -0.2203
   XY=              3.5631   XZ=              0.0000   YZ=             -0.0000
 Octapole moment (field-independent basis, Debye-Ang**2):
  XXX=              0.0000  YYY=             -0.0000  ZZZ=             -0.0000  XYY=              0.0000
  XXY=             -0.0000  XXZ=             -0.0000  XZZ=              0.0000  YZZ=             -0.0000
  YYZ=             -0.0000  XYZ=              0.0000
 Hexadecapole moment (field-independent basis, Debye-Ang**3):
 XXXX=            -16.2041 YYYY=            -46.7790 ZZZZ=            -11.4594 XXXY=              0.6166
 XXXZ=              0.0000 YYYX=              1.7267 YYYZ=             -0.0000 ZZZX=             -0.0000
 ZZZY=             -0.0000 XXYY=             -9.5441 XXZZ=             -5.1199 YYZZ=             -9.4863
 XXYZ=             -0.0000 YYXZ=              0.0000 ZZXY=             -0.5097
 N-N= 3.241036770638D+01 E-N=-3.238375697456D+02  KE= 1.103146323933D+02
 Symmetry AG   KE= 5.575461097085D+01
 Symmetry BG   KE=-6.609577754919D-20
 Symmetry AU   KE= 3.189049762791D+00
 Symmetry BU   KE= 5.137097165968D+01
  Exact polarizability:  17.026   3.565  22.015   0.000   0.000  10.893
 Approx polarizability:  22.003   5.288  34.213   0.000   0.000  14.685
 Calling FoFJK, ICntrl=    100127 FMM=F ISym2X=1 I1Cent= 0 IOpClX= 0 NMat=1 NMatS=1 NMatT=0.
 Full mass-weighted force constant matrix:
 Low frequencies ---  -21.0835   -5.6253    0.0008    0.0014    0.0017    7.4366
 Low frequencies --- 1346.5261 1355.8236 1593.1942
 Diagonal vibrational polarizability:
        0.0473798       1.2700378       1.3746286
 Harmonic frequencies (cm**-1), IR intensities (KM/Mole), Raman scattering
 activities (A**4/AMU), depolarization ratios for plane and unpolarized
 incident light, reduced masses (AMU), force constants (mDyne/A),
 and normal coordinates:
                      1                      2                      3
                     AU                     BU                     AG
 Frequencies --   1346.5261              1355.8236              1593.1941
 Red. masses --      1.0748                 1.0748                 1.5468
 Frc consts  --      1.1482                 1.1641                 2.3132
 IR Inten    --     92.6151                85.1011                 0.0000
  Atom  AN      X      Y      Z        X      Y      Z        X      Y      Z
     1   7    -0.00   0.00  -0.05     0.01  -0.05   0.00     0.09  -0.11  -0.00
     2   7     0.00  -0.00  -0.05     0.01  -0.05   0.00    -0.09   0.11  -0.00
     3   1     0.00  -0.00   0.71    -0.21   0.67  -0.00    -0.15   0.68   0.00
     4   1    -0.00   0.00   0.71    -0.21   0.67  -0.00     0.15  -0.68   0.00
                      4                      5                      6
                     AG                     AG                     BU
 Frequencies --   1651.6392              3229.4228              3261.7430
 Red. masses --      4.1505                 1.0718                 1.0748
 Frc consts  --      6.6709                 6.5856                 6.7371
 IR Inten    --      0.0000                 0.0000                28.2973
  Atom  AN      X      Y      Z        X      Y      Z        X      Y      Z
     1   7     0.07   0.34   0.00    -0.05  -0.01  -0.00    -0.05  -0.01   0.00
     2   7    -0.07  -0.34   0.00     0.05   0.01  -0.00    -0.05  -0.01   0.00
     3   1    -0.03   0.61  -0.00     0.67   0.21   0.00     0.67   0.21  -0.00
     4   1     0.03  -0.61  -0.00    -0.67  -0.21   0.00     0.67   0.21  -0.00

 -------------------
 - Thermochemistry -
 -------------------
 Temperature   298.150 Kelvin.  Pressure   1.00000 Atm.
 Atom     1 has atomic number  7 and mass  14.00307
 Atom     2 has atomic number  7 and mass  14.00307
 Atom     3 has atomic number  1 and mass   1.00783
 Atom     4 has atomic number  1 and mass   1.00783
 Molecular mass:    30.02180 amu.
 Principal axes and moments of inertia in atomic units:
                           1         2         3
     Eigenvalues --     5.89402  45.39551  51.28953
           X            0.16795   0.98579   0.00000
           Y            0.98579  -0.16795   0.00000
           Z            0.00000   0.00000   1.00000
 This molecule is an asymmetric top.
 Rotational symmetry number  2.
 Rotational temperatures (Kelvin)     14.69522     1.90798     1.68873
 Rotational constants (GHZ):         306.19868    39.75594    35.18732
 Zero-point vibrational energy      74397.8 (Joules/Mol)
                                   17.78151 (Kcal/Mol)
 Vibrational temperatures:   1937.35  1950.73  2292.25  2376.34  4646.42
          (Kelvin)           4692.92
 
 Zero-point correction=                           0.028337 (Hartree/Particle)
 Thermal correction to Energy=                    0.031193
 Thermal correction to Enthalpy=                  0.032137
 Thermal correction to Gibbs Free Energy=         0.007392
 Sum of electronic and zero-point Energies=           -110.662625
 Sum of electronic and thermal Energies=              -110.659768
 Sum of electronic and thermal Enthalpies=            -110.658824
 Sum of electronic and thermal Free Energies=         -110.683569
 
                     E (Thermal)             CV                S
                      KCal/Mol        Cal/Mol-Kelvin    Cal/Mol-Kelvin
 Total                   19.574              6.309             52.081
 Electronic               0.000              0.000              0.000
 Translational            0.889              2.981             36.131
 Rotational               0.889              2.981             15.891
 Vibrational             17.797              0.347              0.058
                       Q            Log10(Q)             Ln(Q)
 Total Bot       0.397962D-03         -3.400158         -7.829154
 Total V=0       0.430310D+10          9.633781         22.182601
 Vib (Bot)       0.928304D-13        -13.032310        -30.008002
 Vib (V=0)       0.100376D+01          0.001630          0.003753
 Electronic      0.100000D+01          0.000000          0.000000
 Translational   0.646560D+07          6.810609         15.682007
 Rotational      0.663044D+03          2.821542          6.496841
 ***** Axes restored to original set *****
 -------------------------------------------------------------------
 Center     Atomic                   Forces (Hartrees/Bohr)
 Number     Number              X              Y              Z
 -------------------------------------------------------------------
      1        7          -0.000048640   -0.000040628    0.000000000
      2        7           0.000048640    0.000040628   -0.000000000
      3        1           0.000015633    0.000039988   -0.000000000
      4        1          -0.000015633   -0.000039988    0.000000000
 -------------------------------------------------------------------
 Cartesian Forces:  Max     0.000048640 RMS     0.000031251
 FormGI is forming the generalized inverse of G from B-inverse, IUseBI=4.

 GradGradGradGradGradGradGradGradGradGradGradGradGradGradGradGradGradGrad
 Berny optimization.
 Internal  Forces:  Max     0.000042727 RMS     0.000028287
 Search for a local minimum.
 Step number   1 out of a maximum of    2
 All quantities printed in internal units (Hartrees-Bohrs-Radians)
 Second derivative matrix not updated -- analytic derivatives used.
 The second derivative matrix:
                          R1        R2        R3        A1        A2
           R1           0.76471
           R2           0.02684   0.37614
           R3           0.02684  -0.00238   0.37614
           A1           0.08538   0.01175   0.01088   0.27299
           A2           0.08538   0.01088   0.01175   0.02406   0.27299
           D1           0.00000  -0.00000  -0.00000   0.00000   0.00000
                          D1
           D1           0.11219
 ITU=  0
     Eigenvalues ---    0.11219   0.24892   0.26609   0.37118   0.37853
     Eigenvalues ---    0.79825
 Angle between quadratic step and forces=  12.66 degrees.
 Linear search not attempted -- first point.
 Iteration  1 RMS(Cart)=  0.00005135 RMS(Int)=  0.00000000
 Iteration  2 RMS(Cart)=  0.00000000 RMS(Int)=  0.00000000
 ClnCor:  largest displacement from symmetrization is 3.32D-14 for atom     4.
 Variable       Old X    -DE/DX   Delta X   Delta X   Delta X     New X
                                 (Linear)    (Quad)   (Total)
    R1        2.33512  -0.00003   0.00000  -0.00005  -0.00005   2.33507
    R2        1.95058   0.00004   0.00000   0.00012   0.00012   1.95070
    R3        1.95058   0.00004   0.00000   0.00012   0.00012   1.95070
    A1        1.86871  -0.00001   0.00000  -0.00002  -0.00002   1.86870
    A2        1.86871  -0.00001   0.00000  -0.00002  -0.00002   1.86870
    D1        3.14159  -0.00000   0.00000   0.00000   0.00000   3.14159
         Item               Value     Threshold  Converged?
 Maximum Force            0.000043     0.000450     YES
 RMS     Force            0.000028     0.000300     YES
 Maximum Displacement     0.000060     0.001800     YES
 RMS     Displacement     0.000051     0.001200     YES
 Predicted change in Energy=-5.966370D-09
 Optimization completed.
    -- Stationary point found.
                           ----------------------------
                           !   Optimized Parameters   !
                           ! (Angstroms and Degrees)  !
 --------------------------                            --------------------------
 ! Name  Definition              Value          Derivative Info.                !
 --------------------------------------------------------------------------------
 ! R1    R(1,2)                  1.2357         -DE/DX =    0.0                 !
 ! R2    R(1,3)                  1.0322         -DE/DX =    0.0                 !
 ! R3    R(2,4)                  1.0322         -DE/DX =    0.0                 !
 ! A1    A(2,1,3)              107.0695         -DE/DX =    0.0                 !
 ! A2    A(1,2,4)              107.0695         -DE/DX =    0.0                 !
 ! D1    D(3,1,2,4)            180.0            -DE/DX =    0.0                 !
 --------------------------------------------------------------------------------
 GradGradGradGradGradGradGradGradGradGradGradGradGradGradGradGradGradGrad

 Dipole is zero, so no output in dipole orientation.

 ----------------------------------------------------------------------

 Electric dipole moment (input orientation):
 (Debye = 10**-18 statcoulomb cm , SI units = C m)
                  (au)            (Debye)         (10**-30 SI)
   Tot        0.000000D+00      0.000000D+00      0.000000D+00
   x          0.000000D+00      0.000000D+00      0.000000D+00
   y          0.000000D+00      0.000000D+00      0.000000D+00
   z          0.000000D+00      0.000000D+00      0.000000D+00

 Dipole polarizability, Alpha (input orientation).
 (esu units = cm**3 , SI units = C**2 m**2 J**-1)
 Alpha(0;0):
               (au)            (10**-24 esu)      (10**-40 SI)
   iso        0.166449D+02      0.246652D+01      0.274438D+01
   aniso      0.114555D+02      0.169753D+01      0.188875D+01
   xx         0.230180D+02      0.341092D+01      0.379516D+01
   yx         0.258874D+01      0.383612D+00      0.426826D+00
   yy         0.160232D+02      0.237440D+01      0.264187D+01
   zx         0.000000D+00      0.000000D+00      0.000000D+00
   zy         0.000000D+00      0.000000D+00      0.000000D+00
   zz         0.108935D+02      0.161425D+01      0.179610D+01

 ----------------------------------------------------------------------
 1\1\GINC-GAMBA\Freq\RB3LYP\Gen\H2N2\IRIKURA\30-Aug-2022\0\\#N Geom=All
 Check Guess=TCheck SCRF=Check GenChk RB3LYP/ChkBas Freq\\trans-diazene
 , B3LYP/pcseg-2\\0,1\N,0.6097980985,-0.0993962063,0.\N,-0.6097980985,0
 .0993962063,0.\H,1.067576794,0.8257429329,0.\H,-1.067576794,-0.8257429
 329,0.\\Version=ES64L-G16RevB.01\State=1-AG\HF=-110.6909612\RMSD=4.034
 e-10\RMSF=3.125e-05\ZeroPoint=0.0283366\Thermal=0.0311933\Dipole=0.,0.
 ,0.\DipoleDeriv=-0.1422648,0.0670481,0.,0.1626136,0.0591777,0.,0.,0.,-
 0.2113252,-0.1422648,0.0670481,0.,0.1626137,0.0591777,0.,0.,0.,-0.2113
 252,0.1422648,-0.0670481,0.,-0.1626136,-0.0591777,0.,0.,0.,0.2113251,0
 .1422648,-0.0670481,0.,-0.1626136,-0.0591777,0.,0.,0.,0.2113251\Polar=
 23.0180468,2.5887447,16.0232293,0.,0.,10.8934975\Quadrupole=0.0010267,
 0.1627504,-0.1637771,2.8208003,0.,0.\PG=C02H [SGH(H2N2)]\NImag=0\\0.78
 622634,0.03484019,0.45563668,0.,0.,0.03225641,-0.65888555,0.08988999,0
 .,0.78622634,0.08988999,-0.13905075,0.,0.03484019,0.45563668,0.,0.,0.0
 3225296,0.,0.,0.03225641,-0.07582667,-0.07094721,0.,-0.05151412,-0.053
 78298,0.,0.13638891,-0.12332656,-0.33219802,0.,-0.00140362,0.01561209,
 0.,0.12465316,0.31147745,0.,0.,-0.03224414,0.,0.,-0.03226523,0.,0.,0.0
 3224714,-0.05151412,-0.05378298,0.,-0.07582667,-0.07094721,0.,-0.00904
 813,0.00007702,0.,0.13638891,-0.00140362,0.01561209,0.,-0.12332656,-0.
 33219802,0.,0.00007702,0.00510848,0.,0.12465316,0.31147745,0.,0.,-0.03
 226523,0.,0.,-0.03224414,0.,0.,0.03226223,0.,0.,0.03224714\\0.00004864
 ,0.00004063,0.,-0.00004864,-0.00004063,0.,-0.00001563,-0.00003999,0.,0
 .00001563,0.00003999,0.\\\@


 A CHEMICAL PHYSICIST MAKES PRECISE MEASUREMENTS ON IMPURE COMPOUNDS.
 A THEORETICAL PHYSICAL CHEMIST MAKES IMPRECISE
     MEASUREMENTS ON PURE COMPOUNDS.
 AN EXPERIMENTAL PHYSICAL CHEMIST MAKES IMPRECISE
     MEASUREMENTS ON IMPURE COMPOUNDS.
 Job cpu time:       0 days  0 hours  0 minutes 51.5 seconds.
 Elapsed time:       0 days  0 hours  0 minutes  9.2 seconds.
 File lengths (MBytes):  RWF=     10 Int=      0 D2E=      0 Chk=      2 Scr=      1
 Normal termination of Gaussian 16 at Tue Aug 30 12:12:58 2022.
