 Entering Gaussian System, Link 0=g16
 AtFile(1): pcseg2.gbs
            -H     0
            S   4   1.00
                  0.754732D+02           0.427821D-02
                  0.113575D+02           0.328672D-01
                  0.260081D+01           0.159578D+00
                  0.735503D+00           0.500000D+00
            S   1   1.00
                  0.231761D+00           1.0000000
            S   1   1.00
                  0.741675D-01           1.0000000
            P   1   1.00
                  0.160000D+01           1.0000000
            P   1   1.00
                  0.450000D+00           1.0000000
            D   1   1.00
                  0.125000D+01           1.0000000
            ****
            -C     0
            S   7   1.00
                  0.731999D+04           0.695369D-03
                  0.109818D+04           0.537138D-02
                  0.250014D+03           0.274734D-01
                  0.707586D+02           0.105078D+00
                  0.228595D+02           0.291262D+00
                  0.803936D+01           0.500000D+00
                  0.289309D+01           0.362224D+00
            S   2   1.00
                  0.521640D+01          -0.957844D-01
                  0.556124D+00           0.500000D+00
            S   1   1.00
                  0.228813D+00           1.0000000
            S   1   1.00
                  0.936338D-01           1.0000000
            P   4   1.00
                  0.339855D+02           0.818395D-02
                  0.772957D+01           0.586921D-01
                  0.224954D+01           0.222514D+00
                  0.767681D+00           0.500000D+00
            P   1   1.00
                  0.263283D+00           1.0000000
            P   1   1.00
                  0.848744D-01           1.0000000
            D   1   1.00
                  0.140000D+01           1.0000000
            D   1   1.00
                  0.450000D+00           1.0000000
            F   1   1.00
                  0.950000D+00           1.0000000
            ****
            -O     0
            S   7   1.00
                  0.135887D+05           0.665492D-03
                  0.203847D+04           0.514222D-02
                  0.464041D+03           0.263472D-01
                  0.131339D+03           0.101500D+00
                  0.425340D+02           0.285877D+00
                  0.150429D+02           0.500000D+00
                  0.546616D+01           0.368211D+00
            S   2   1.00
                  0.100915D+02          -0.100084D+00
                  0.110429D+01           0.500000D+00
            S   1   1.00
                  0.448082D+00           1.0000000
            S   1   1.00
                  0.175325D+00           1.0000000
            P   4   1.00
                  0.608220D+02           0.908253D-02
                  0.140332D+02           0.645878D-01
                  0.418244D+01           0.241502D+00
                  0.142490D+01           0.500000D+00
            P   1   1.00
                  0.478741D+00           1.0000000
            P   1   1.00
                  0.146257D+00           1.0000000
            D   1   1.00
                  0.220000D+01           1.0000000
            D   1   1.00
                  0.650000D+00           1.0000000
            F   1   1.00
                  0.110000D+01           1.0000000
            ****
            -N     0
            S   7   1.00
                  0.101643D+05           0.682757D-03
                  0.152481D+04           0.527488D-02
                  0.347119D+03           0.270037D-01
                  0.982389D+02           0.103673D+00
                  0.317799D+02           0.289575D+00
                  0.112240D+02           0.500000D+00
                  0.406611D+01           0.364621D+00
            S   2   1.00
                  0.747898D+01          -0.975681D-01
                  0.805040D+00           0.500000D+00
            S   1   1.00
                  0.324626D+00           1.0000000
            S   1   1.00
                  0.128132D+00           1.0000000
            P   4   1.00
                  0.482704D+02           0.829547D-02
                  0.110815D+02           0.596223D-01
                  0.326643D+01           0.227889D+00
                  0.111680D+01           0.500000D+00
            P   1   1.00
                  0.382049D+00           1.0000000
            P   1   1.00
                  0.121222D+00           1.0000000
            D   1   1.00
                  0.180000D+01           1.0000000
            D   1   1.00
                  0.550000D+00           1.0000000
            F   1   1.00
                  0.102000D+01           1.0000000
            ****
            -F     0
            S   7   1.00
                  0.174507D+05           0.655972D-03
                  0.261768D+04           0.506944D-02
                  0.595857D+03           0.259899D-01
                  0.168651D+03           0.100353D+00
                  0.546654D+02           0.284095D+00
                  0.193717D+02           0.500000D+00
                  0.706202D+01           0.370721D+00
            S   2   1.00
                  0.131197D+02          -0.101997D+00
                  0.145046D+01           0.500000D+00
            S   1   1.00
                  0.588255D+00           1.0000000
            S   1   1.00
                  0.227960D+00           1.0000000
            P   4   1.00
                  0.779407D+02           0.931135D-02
                  0.180425D+02           0.663964D-01
                  0.542342D+01           0.246386D+00
                  0.184876D+01           0.500000D+00
            P   1   1.00
                  0.617455D+00           1.0000000
            P   1   1.00
                  0.185496D+00           1.0000000
            D   1   1.00
                  0.280000D+01           1.0000000
            D   1   1.00
                  0.800000D+00           1.0000000
            F   1   1.00
                  0.120000D+01           1.0000000
            ****
            -Cl     0
            S   8   1.00
                  0.154272D+06           0.222473D-03
                  0.231232D+05           0.172590D-02
                  0.526257D+04           0.899286D-02
                  0.148995D+04           0.367724D-01
                  0.485417D+03           0.121446D+00
                  0.174634D+03           0.304148D+00
                  0.672393D+02           0.500000D+00
                  0.265780D+02           0.360252D+00
            S   3   1.00
                  0.131826D+03          -0.531330D-01
                  0.400703D+02          -0.233346D+00
                  0.789448D+01           0.500000D+00
            S   2   1.00
                  0.427711D+01           0.500000D+00
                  0.196233D+01           0.370517D+00
            S   1   1.00
                  0.520793D+00           1.0000000
            S   1   1.00
                  0.181633D+00           1.0000000
            P   7   1.00
                  0.124440D+04           0.988206D-03
                  0.295109D+03           0.829674D-02
                  0.947224D+02           0.430906D-01
                  0.352588D+02           0.148443D+00
                  0.144211D+02           0.344744D+00
                  0.610371D+01           0.500000D+00
                  0.258886D+01           0.348278D+00
            P   2   1.00
                  0.109447D+02          -0.196768D-01
                  0.104413D+01           0.500000D+00
            P   1   1.00
                  0.376184D+00           1.0000000
            P   1   1.00
                  0.120613D+00           1.0000000
            D   1   1.00
                  0.231000D+01           1.0000000
            D   1   1.00
                  0.520000D+00           1.0000000
            F   1   1.00
                  0.720000D+00           1.0000000
            ****
            -S     0
            S   8   1.00
                  0.134700D+06           0.226231D-03
                  0.201904D+05           0.175488D-02
                  0.459528D+04           0.914190D-02
                  0.130109D+04           0.373551D-01
                  0.423902D+03           0.123121D+00
                  0.152485D+03           0.306801D+00
                  0.586925D+02           0.500000D+00
                  0.231461D+02           0.354358D+00
            S   3   1.00
                  0.116327D+03          -0.491772D-01
                  0.352841D+02          -0.215962D+00
                  0.677831D+01           0.500000D+00
            S   2   1.00
                  0.360404D+01           0.500000D+00
                  0.164871D+01           0.366278D+00
            S   1   1.00
                  0.421821D+00           1.0000000
            S   1   1.00
                  0.147554D+00           1.0000000
            P   7   1.00
                  0.104863D+04           0.105273D-02
                  0.248717D+03           0.879338D-02
                  0.797887D+02           0.453358D-01
                  0.296023D+02           0.154476D+00
                  0.120627D+02           0.352366D+00
                  0.507628D+01           0.500000D+00
                  0.213375D+01           0.346429D+00
            P   2   1.00
                  0.928958D+01          -0.185932D-01
                  0.837819D+00           0.500000D+00
            P   1   1.00
                  0.301495D+00           1.0000000
            P   1   1.00
                  0.974740D-01           1.0000000
            D   1   1.00
                  0.210000D+01           1.0000000
            D   1   1.00
                  0.480000D+00           1.0000000
            F   1   1.00
                  0.660000D+00           1.0000000
            ****
            -Si     0
            S    8   1.00
                  0.996133D+05           0.235546D-03
                  0.149311D+05           0.182707D-02
                  0.339820D+04           0.951425D-02
                  0.962140D+03           0.388172D-01
                  0.313430D+03           0.127328D+00
                  0.112683D+03           0.313522D+00
                  0.433372D+02           0.500000D+00
                  0.170029D+02           0.340347D+00
            S    3   1.00
                  0.884208D+02          -0.404451D-01
                  0.266756D+02          -0.178059D+00
                  0.479640D+01           0.500000D+00
            S    2   1.00
                  0.239385D+01           0.500000D+00
                  0.108333D+01           0.338016D+00
            S    1   1.00
                  0.252420D+00           1.0000000
            S    1   1.00
                  0.891210D-01           1.0000000
            P    7   1.00
                  0.709901D+03           0.123028D-02
                  0.168426D+03           0.101366D-01
                  0.539946D+02           0.511840D-01
                  0.198646D+02           0.169967D+00
                  0.801369D+01           0.370717D+00
                  0.331870D+01           0.500000D+00
                  0.136112D+01           0.344128D+00
            P    2   1.00
                  0.622158D+01          -0.166609D-01
                  0.503049D+00           0.500000D+00
            P    1   1.00
                  0.179848D+00           1.0000000
            P    1   1.00
                  0.591912D-01           1.0000000
            D    1   1.00
                  0.168000D+01           1.0000000
            D    1   1.00
                  0.380000D+00           1.0000000
            F    1   1.00
                  0.540000D+00           1.0000000
            ****
            -P     0
            S    8   1.00
                  0.116416D+06           0.230715D-03
                  0.174500D+05           0.178960D-02
                  0.397149D+04           0.932116D-02
                  0.112447D+04           0.380591D-01
                  0.366347D+03           0.125148D+00
                  0.131757D+03           0.310022D+00
                  0.506988D+02           0.500000D+00
                  0.199436D+02           0.347528D+00
            S    3   1.00
                  0.101878D+03          -0.446755D-01
                  0.308249D+02          -0.196376D+00
                  0.573688D+01           0.500000D+00
            S    2   1.00
                  0.296868D+01           0.500000D+00
                  0.135315D+01           0.355098D+00
            S    1   1.00
                  0.332196D+00           1.0000000
            S    1   1.00
                  0.116229D+00           1.0000000
            P    7   1.00
                  0.873928D+03           0.112375D-02
                  0.207298D+03           0.933330D-02
                  0.664628D+02           0.477213D-01
                  0.245665D+02           0.160733D+00
                  0.996820D+01           0.359760D+00
                  0.416536D+01           0.500000D+00
                  0.173022D+01           0.346593D+00
            P    2   1.00
                  0.772530D+01          -0.175718D-01
                  0.657252D+00           0.500000D+00
            P    1   1.00
                  0.239903D+00           1.0000000
            P    1   1.00
                  0.800988D-01           1.0000000
            D    1   1.00
                  0.189000D+01           1.0000000
            D    1   1.00
                  0.430000D+00           1.0000000
            F    1   1.00
                  0.600000D+00           1.0000000
            ****
            
 Initial command:
 /usr/local/apps/g16_b01_avx/g16/l1.exe "/wrk/irikura/Gau-15606.inp" -scrdir="/wrk/irikura/"
 Entering Link 1 = /usr/local/apps/g16_b01_avx/g16/l1.exe PID=     15608.
  
 Copyright (c) 1988-2017, Gaussian, Inc.  All Rights Reserved.
  
 This is part of the Gaussian(R) 16 program.  It is based on
 the Gaussian(R) 09 system (copyright 2009, Gaussian, Inc.),
 the Gaussian(R) 03 system (copyright 2003, Gaussian, Inc.),
 the Gaussian(R) 98 system (copyright 1998, Gaussian, Inc.),
 the Gaussian(R) 94 system (copyright 1995, Gaussian, Inc.),
 the Gaussian 92(TM) system (copyright 1992, Gaussian, Inc.),
 the Gaussian 90(TM) system (copyright 1990, Gaussian, Inc.),
 the Gaussian 88(TM) system (copyright 1988, Gaussian, Inc.),
 the Gaussian 86(TM) system (copyright 1986, Carnegie Mellon
 University), and the Gaussian 82(TM) system (copyright 1983,
 Carnegie Mellon University). Gaussian is a federally registered
 trademark of Gaussian, Inc.
  
 This software contains proprietary and confidential information,
 including trade secrets, belonging to Gaussian, Inc.
  
 This software is provided under written license and may be
 used, copied, transmitted, or stored only in accord with that
 written license.
  
 The following legend is applicable only to US Government
 contracts under FAR:
  
                    RESTRICTED RIGHTS LEGEND
  
 Use, reproduction and disclosure by the US Government is
 subject to restrictions as set forth in subparagraphs (a)
 and (c) of the Commercial Computer Software - Restricted
 Rights clause in FAR 52.227-19.
  
 Gaussian, Inc.
 340 Quinnipiac St., Bldg. 40, Wallingford CT 06492
  
  
 ---------------------------------------------------------------
 Warning -- This program may not be used in any manner that
 competes with the business of Gaussian, Inc. or will provide
 assistance to any competitor of Gaussian, Inc.  The licensee
 of this program is prohibited from giving any competitor of
 Gaussian, Inc. access to this program.  By using this program,
 the user acknowledges that Gaussian, Inc. is engaged in the
 business of creating and licensing software in the field of
 computational chemistry and represents and warrants to the
 licensee that it is not a competitor of Gaussian, Inc. and that
 it will not use this program in any manner prohibited above.
 ---------------------------------------------------------------
  

 Cite this work as:
 Gaussian 16, Revision B.01,
 M. J. Frisch, G. W. Trucks, H. B. Schlegel, G. E. Scuseria, 
 M. A. Robb, J. R. Cheeseman, G. Scalmani, V. Barone, 
 G. A. Petersson, H. Nakatsuji, X. Li, M. Caricato, A. V. Marenich, 
 J. Bloino, B. G. Janesko, R. Gomperts, B. Mennucci, H. P. Hratchian, 
 J. V. Ortiz, A. F. Izmaylov, J. L. Sonnenberg, D. Williams-Young, 
 F. Ding, F. Lipparini, F. Egidi, J. Goings, B. Peng, A. Petrone, 
 T. Henderson, D. Ranasinghe, V. G. Zakrzewski, J. Gao, N. Rega, 
 G. Zheng, W. Liang, M. Hada, M. Ehara, K. Toyota, R. Fukuda, 
 J. Hasegawa, M. Ishida, T. Nakajima, Y. Honda, O. Kitao, H. Nakai, 
 T. Vreven, K. Throssell, J. A. Montgomery, Jr., J. E. Peralta, 
 F. Ogliaro, M. J. Bearpark, J. J. Heyd, E. N. Brothers, K. N. Kudin, 
 V. N. Staroverov, T. A. Keith, R. Kobayashi, J. Normand, 
 K. Raghavachari, A. P. Rendell, J. C. Burant, S. S. Iyengar, 
 J. Tomasi, M. Cossi, J. M. Millam, M. Klene, C. Adamo, R. Cammi, 
 J. W. Ochterski, R. L. Martin, K. Morokuma, O. Farkas, 
 J. B. Foresman, and D. J. Fox, Gaussian, Inc., Wallingford CT, 2016.
 
 ******************************************
 Gaussian 16:  ES64L-G16RevB.01 20-Dec-2017
                 2-Feb-2022 
 ******************************************
 %mem=500mw
 --------------------
 # b3lyp/gen opt freq
 --------------------
 1/18=20,19=15,26=3,38=1/1,3;
 2/9=110,12=2,17=6,18=5,40=1/2;
 3/5=7,11=2,25=1,30=1,71=1,74=-5/1,2,3;
 4//1;
 5/5=2,38=5/2;
 6/7=2,8=2,9=2,10=2,28=1/1;
 7//1,2,3,16;
 1/18=20,19=15,26=3/3(2);
 2/9=110/2;
 99//99;
 2/9=110/2;
 3/5=7,6=1,11=2,25=1,30=1,71=1,74=-5,82=7/1,2,3;
 4/5=5,16=3,69=1/1;
 5/5=2,38=5/2;
 7//1,2,3,16;
 1/18=20,19=15,26=3/3(-5);
 2/9=110/2;
 6/7=2,8=2,9=2,10=2,19=2,28=1/1;
 99/9=1/99;
 ------------------
 HNO, B3LYP/pcseg-2
 ------------------
 Symbolic Z-matrix:
 Charge =  0 Multiplicity = 1
 N
 H                    1     1. 
 O                    1     1.3      2     120. 
 

 GradGradGradGradGradGradGradGradGradGradGradGradGradGradGradGradGradGrad
 Berny optimization.
 Initialization pass.
                           ----------------------------
                           !    Initial Parameters    !
                           ! (Angstroms and Degrees)  !
 --------------------------                            --------------------------
 ! Name  Definition              Value          Derivative Info.                !
 --------------------------------------------------------------------------------
 ! R1    R(1,2)                  1.0            estimate D2E/DX2                !
 ! R2    R(1,3)                  1.3            estimate D2E/DX2                !
 ! A1    A(2,1,3)              120.0            estimate D2E/DX2                !
 --------------------------------------------------------------------------------
 Trust Radius=3.00D-01 FncErr=1.00D-07 GrdErr=1.00D-06 EigMax=2.50D+02 EigMin=1.00D-04
 Number of steps in this run=     20 maximum allowed number of steps=    100.
 GradGradGradGradGradGradGradGradGradGradGradGradGradGradGradGradGradGrad

                          Input orientation:                          
 ---------------------------------------------------------------------
 Center     Atomic      Atomic             Coordinates (Angstroms)
 Number     Number       Type             X           Y           Z
 ---------------------------------------------------------------------
      1          7           0        0.000000    0.000000    0.000000
      2          1           0        0.000000    0.000000    1.000000
      3          8           0        1.125833    0.000000   -0.650000
 ---------------------------------------------------------------------
                    Distance matrix (angstroms):
                    1          2          3
     1  N    0.000000
     2  H    1.000000   0.000000
     3  O    1.300000   1.997498   0.000000
 Stoichiometry    HNO
 Framework group  CS[SG(HNO)]
 Deg. of freedom     3
 Full point group                 CS      NOp   2
 Largest Abelian subgroup         CS      NOp   2
 Largest concise Abelian subgroup C1      NOp   1
                         Standard orientation:                         
 ---------------------------------------------------------------------
 Center     Atomic      Atomic             Coordinates (Angstroms)
 Number     Number       Type             X           Y           Z
 ---------------------------------------------------------------------
      1          7           0        0.054127    0.618750    0.000000
      2          1           0       -0.811899    1.118750    0.000000
      3          8           0        0.054127   -0.681250   -0.000000
 ---------------------------------------------------------------------
 Rotational constants (GHZ):         771.2581906          35.8871790          34.2915685
 General basis read from cards:  (5D, 7F)
 There are    59 symmetry adapted cartesian basis functions of A'  symmetry.
 There are    26 symmetry adapted cartesian basis functions of A"  symmetry.
 There are    50 symmetry adapted basis functions of A'  symmetry.
 There are    24 symmetry adapted basis functions of A"  symmetry.
    74 basis functions,   120 primitive gaussians,    85 cartesian basis functions
     8 alpha electrons        8 beta electrons
       nuclear repulsion energy        28.6189261864 Hartrees.
 NAtoms=    3 NActive=    3 NUniq=    3 SFac= 1.00D+00 NAtFMM=   60 NAOKFM=F Big=F
 Integral buffers will be    131072 words long.
 Raffenetti 2 integral format.
 Two-electron integral symmetry is turned on.
 One-electron integrals computed using PRISM.
 NBasis=    74 RedAO= T EigKep=  1.68D-03  NBF=    50    24
 NBsUse=    74 1.00D-06 EigRej= -1.00D+00 NBFU=    50    24
 ExpMin= 7.42D-02 ExpMax= 1.36D+04 ExpMxC= 4.64D+02 IAcc=3 IRadAn=         5 AccDes= 0.00D+00
 Harris functional with IExCor=  402 and IRadAn=       5 diagonalized for initial guess.
 HarFok:  IExCor=  402 AccDes= 0.00D+00 IRadAn=         5 IDoV= 1 UseB2=F ITyADJ=14
 ICtDFT=  3500011 ScaDFX=  1.000000  1.000000  1.000000  1.000000
 FoFCou: FMM=F IPFlag=           0 FMFlag=      100000 FMFlg1=           0
         NFxFlg=           0 DoJE=T BraDBF=F KetDBF=T FulRan=T
         wScrn=  0.000000 ICntrl=       500 IOpCl=  0 I1Cent=   200000004 NGrid=           0
         NMat0=    1 NMatS0=      1 NMatT0=    0 NMatD0=    1 NMtDS0=    0 NMtDT0=    0
 Petite list used in FoFCou.
 Initial guess orbital symmetries:
       Occupied  (A') (A') (A') (A') (A') (A') (A") (A')
       Virtual   (A") (A') (A') (A') (A") (A') (A') (A') (A") (A')
                 (A') (A') (A") (A') (A') (A") (A') (A') (A") (A')
                 (A') (A") (A') (A") (A') (A') (A") (A') (A") (A')
                 (A') (A') (A') (A") (A') (A") (A') (A") (A') (A')
                 (A") (A') (A") (A') (A') (A") (A') (A') (A") (A')
                 (A") (A') (A") (A') (A") (A') (A") (A') (A') (A")
                 (A') (A") (A') (A') (A') (A')
 The electronic state of the initial guess is 1-A'.
 Keep R1 ints in memory in symmetry-blocked form, NReq=5826291.
 Requested convergence on RMS density matrix=1.00D-08 within 128 cycles.
 Requested convergence on MAX density matrix=1.00D-06.
 Requested convergence on             energy=1.00D-06.
 No special actions if energy rises.
 Integral accuracy reduced to 1.0D-05 until final iterations.
 Initial convergence to 1.0D-05 achieved.  Increase integral accuracy.
 SCF Done:  E(RB3LYP) =  -130.508009727     A.U. after   11 cycles
            NFock= 11  Conv=0.54D-08     -V/T= 2.0048

 **********************************************************************

            Population analysis using the SCF Density.

 **********************************************************************

 Orbital symmetries:
       Occupied  (A') (A') (A') (A') (A') (A") (A') (A')
       Virtual   (A") (A') (A') (A") (A') (A') (A') (A') (A") (A')
                 (A') (A') (A") (A') (A') (A") (A') (A') (A") (A')
                 (A') (A") (A') (A") (A') (A') (A") (A') (A") (A')
                 (A') (A') (A') (A") (A') (A") (A') (A") (A') (A')
                 (A") (A') (A") (A') (A') (A") (A') (A') (A") (A')
                 (A") (A') (A") (A') (A") (A") (A') (A') (A') (A")
                 (A') (A") (A') (A') (A') (A')
 The electronic state is 1-A'.
 Alpha  occ. eigenvalues --  -19.22524 -14.45232  -1.12139  -0.77636  -0.53614
 Alpha  occ. eigenvalues --   -0.44289  -0.44094  -0.26854
 Alpha virt. eigenvalues --   -0.14939   0.00892   0.11148   0.24947   0.25494
 Alpha virt. eigenvalues --    0.28743   0.30846   0.33797   0.38578   0.38633
 Alpha virt. eigenvalues --    0.39888   0.69241   0.74793   0.83547   1.02509
 Alpha virt. eigenvalues --    1.13373   1.22471   1.31945   1.32242   1.55816
 Alpha virt. eigenvalues --    1.58996   1.62931   1.66187   1.74997   1.93002
 Alpha virt. eigenvalues --    1.93771   1.97431   2.04099   2.33727   2.41908
 Alpha virt. eigenvalues --    2.45687   2.77787   2.98302   3.30882   3.34955
 Alpha virt. eigenvalues --    3.37606   3.56264   3.60212   3.68801   3.93686
 Alpha virt. eigenvalues --    3.95078   4.01908   4.03802   4.19206   4.21133
 Alpha virt. eigenvalues --    4.36217   4.39082   4.46245   4.63475   4.64881
 Alpha virt. eigenvalues --    4.98865   5.13729   5.14747   5.19796   5.45123
 Alpha virt. eigenvalues --    5.78351   5.79489   5.95047   5.99283   5.99932
 Alpha virt. eigenvalues --    6.16685   6.40661   6.42550   6.51890   6.85862
 Alpha virt. eigenvalues --    8.46651
          Condensed to atoms (all electrons):
               1          2          3
     1  N    6.457842   0.225552   0.239663
     2  H    0.225552   0.688875  -0.042280
     3  O    0.239663  -0.042280   8.007414
 Mulliken charges:
               1
     1  N    0.076943
     2  H    0.127853
     3  O   -0.204797
 Sum of Mulliken charges =  -0.00000
 Mulliken charges with hydrogens summed into heavy atoms:
               1
     1  N    0.204797
     3  O   -0.204797
 Electronic spatial extent (au):  <R**2>=             54.7351
 Charge=             -0.0000 electrons
 Dipole moment (field-independent basis, Debye):
    X=             -1.6002    Y=              1.4166    Z=              0.0000  Tot=              2.1372
 Quadrupole moment (field-independent basis, Debye-Ang):
   XX=            -11.5642   YY=            -11.1861   ZZ=            -10.7755
   XY=             -1.9594   XZ=             -0.0000   YZ=             -0.0000
 Traceless Quadrupole moment (field-independent basis, Debye-Ang):
   XX=             -0.3889   YY=             -0.0109   ZZ=              0.3998
   XY=             -1.9594   XZ=             -0.0000   YZ=             -0.0000
 Octapole moment (field-independent basis, Debye-Ang**2):
  XXX=             -1.7138  YYY=              0.2602  ZZZ=             -0.0000  XYY=             -2.4295
  XXY=              0.3685  XXZ=             -0.0000  XZZ=             -0.3404  YZZ=             -0.3842
  YYZ=              0.0000  XYZ=             -0.0000
 Hexadecapole moment (field-independent basis, Debye-Ang**3):
 XXXX=            -13.1106 YYYY=            -40.1124 ZZZZ=             -9.0019 XXXY=              0.0225
 XXXZ=              0.0000 YYYX=             -1.7022 YYYZ=             -0.0000 ZZZX=              0.0000
 ZZZY=             -0.0000 XXYY=             -9.1836 XXZZ=             -3.7898 YYZZ=             -8.2004
 XXYZ=             -0.0000 YYXZ=             -0.0000 ZZXY=              0.2162
 N-N= 2.861892618643D+01 E-N=-3.644854426337D+02  KE= 1.298886581781D+02
 Symmetry A'   KE= 1.259463465239D+02
 Symmetry A"   KE= 3.942311654214D+00
 Calling FoFJK, ICntrl=      2127 FMM=F ISym2X=1 I1Cent= 0 IOpClX= 0 NMat=1 NMatS=1 NMatT=0.
 ***** Axes restored to original set *****
 -------------------------------------------------------------------
 Center     Atomic                   Forces (Hartrees/Bohr)
 Number     Number              X              Y              Z
 -------------------------------------------------------------------
      1        7           0.056286777   -0.000000000   -0.117209423
      2        1           0.033734238    0.000000000    0.035271977
      3        8          -0.090021015   -0.000000000    0.081937447
 -------------------------------------------------------------------
 Cartesian Forces:  Max     0.117209423 RMS     0.061559267

 GradGradGradGradGradGradGradGradGradGradGradGradGradGradGradGradGradGrad
 Berny optimization.
 FormGI is forming the generalized inverse of G from B-inverse, IUseBI=4.
 Internal  Forces:  Max     0.118929208 RMS     0.080523567
 Search for a local minimum.
 Step number   1 out of a maximum of   20
 All quantities printed in internal units (Hartrees-Bohrs-Radians)
 Mixed Optimization -- RFO/linear search
 Second derivative matrix not updated -- first step.
 The second derivative matrix:
                          R1        R2        A1
           R1           0.47688
           R2           0.00000   0.67193
           A1           0.00000   0.00000   0.16000
 ITU=  0
     Eigenvalues ---    0.16000   0.47688   0.67193
 RFO step:  Lambda=-4.22893280D-02 EMin= 1.60000000D-01
 Linear search not attempted -- first point.
 Maximum step size (   0.300) exceeded in Quadratic search.
    -- Step size scaled by   0.827
 Iteration  1 RMS(Cart)=  0.14997403 RMS(Int)=  0.03505995
 Iteration  2 RMS(Cart)=  0.04241242 RMS(Int)=  0.00079067
 Iteration  3 RMS(Cart)=  0.00059713 RMS(Int)=  0.00000007
 Iteration  4 RMS(Cart)=  0.00000009 RMS(Int)=  0.00000000
 ClnCor:  largest displacement from symmetrization is 2.62D-16 for atom     2.
 Variable       Old X    -DE/DX   Delta X   Delta X   Delta X     New X
                                 (Linear)    (Quad)   (Total)
    R1        1.88973   0.03527   0.00000   0.05617   0.05617   1.94590
    R2        2.45664  -0.11893   0.00000  -0.13768  -0.13768   2.31897
    A1        2.09440  -0.06375   0.00000  -0.26056  -0.26056   1.83384
         Item               Value     Threshold  Converged?
 Maximum Force            0.118929     0.000450     NO 
 RMS     Force            0.080524     0.000300     NO 
 Maximum Displacement     0.204566     0.001800     NO 
 RMS     Displacement     0.190511     0.001200     NO 
 Predicted change in Energy=-2.241345D-02
 GradGradGradGradGradGradGradGradGradGradGradGradGradGradGradGradGradGrad

                          Input orientation:                          
 ---------------------------------------------------------------------
 Center     Atomic      Atomic             Coordinates (Angstroms)
 Number     Number       Type             X           Y           Z
 ---------------------------------------------------------------------
      1          7           0       -0.048294   -0.000000   -0.064186
      2          1           0        0.092014    0.000000    0.955935
      3          8           0        1.082112    0.000000   -0.541749
 ---------------------------------------------------------------------
                    Distance matrix (angstroms):
                    1          2          3
     1  N    0.000000
     2  H    1.029725   0.000000
     3  O    1.227144   1.795369   0.000000
 Stoichiometry    HNO
 Framework group  CS[SG(HNO)]
 Deg. of freedom     3
 Full point group                 CS      NOp   2
 Largest Abelian subgroup         CS      NOp   2
 Largest concise Abelian subgroup C1      NOp   1
                         Standard orientation:                         
 ---------------------------------------------------------------------
 Center     Atomic      Atomic             Coordinates (Angstroms)
 Number     Number       Type             X           Y           Z
 ---------------------------------------------------------------------
      1          7           0        0.062144    0.596838    0.000000
      2          1           0       -0.932162    0.864586    0.000000
      3          8           0        0.062144   -0.630307   -0.000000
 ---------------------------------------------------------------------
 Rotational constants (GHZ):         566.2419732          41.6153345          38.7662513
 Basis read from rwf:  (5D, 7F)
 There are    59 symmetry adapted cartesian basis functions of A'  symmetry.
 There are    26 symmetry adapted cartesian basis functions of A"  symmetry.
 There are    50 symmetry adapted basis functions of A'  symmetry.
 There are    24 symmetry adapted basis functions of A"  symmetry.
    74 basis functions,   120 primitive gaussians,    85 cartesian basis functions
     8 alpha electrons        8 beta electrons
       nuclear repulsion energy        30.1039588237 Hartrees.
 NAtoms=    3 NActive=    3 NUniq=    3 SFac= 1.00D+00 NAtFMM=   60 NAOKFM=F Big=F
 Integral buffers will be    131072 words long.
 Raffenetti 2 integral format.
 Two-electron integral symmetry is turned on.
 One-electron integrals computed using PRISM.
 NBasis=    74 RedAO= T EigKep=  1.22D-03  NBF=    50    24
 NBsUse=    74 1.00D-06 EigRej= -1.00D+00 NBFU=    50    24
 Initial guess from the checkpoint file:  "/wrk/irikura/Gau-15608.chk"
 B after Tr=     0.000000    0.000000   -0.000000
         Rot=    0.999728   -0.000000    0.000000   -0.023306 Ang=  -2.67 deg.
 Initial guess orbital symmetries:
       Occupied  (A') (A') (A') (A') (A') (A") (A') (A')
       Virtual   (A") (A') (A') (A") (A') (A') (A') (A') (A") (A')
                 (A') (A') (A") (A') (A') (A") (A') (A') (A") (A')
                 (A') (A") (A') (A") (A') (A') (A") (A') (A") (A')
                 (A') (A') (A') (A") (A') (A") (A') (A") (A') (A')
                 (A") (A') (A") (A') (A') (A") (A') (A') (A") (A')
                 (A") (A') (A") (A') (A") (A") (A') (A') (A') (A")
                 (A') (A") (A') (A') (A') (A')
 ExpMin= 7.42D-02 ExpMax= 1.36D+04 ExpMxC= 4.64D+02 IAcc=3 IRadAn=         5 AccDes= 0.00D+00
 Harris functional with IExCor=  402 and IRadAn=       5 diagonalized for initial guess.
 HarFok:  IExCor=  402 AccDes= 0.00D+00 IRadAn=         5 IDoV= 1 UseB2=F ITyADJ=14
 ICtDFT=  3500011 ScaDFX=  1.000000  1.000000  1.000000  1.000000
 FoFCou: FMM=F IPFlag=           0 FMFlag=      100000 FMFlg1=           0
         NFxFlg=           0 DoJE=T BraDBF=F KetDBF=T FulRan=T
         wScrn=  0.000000 ICntrl=       500 IOpCl=  0 I1Cent=   200000004 NGrid=           0
         NMat0=    1 NMatS0=      1 NMatT0=    0 NMatD0=    1 NMtDS0=    0 NMtDT0=    0
 Petite list used in FoFCou.
 Keep R1 ints in memory in symmetry-blocked form, NReq=5826347.
 Requested convergence on RMS density matrix=1.00D-08 within 128 cycles.
 Requested convergence on MAX density matrix=1.00D-06.
 Requested convergence on             energy=1.00D-06.
 No special actions if energy rises.
 Integral accuracy reduced to 1.0D-05 until final iterations.
 Initial convergence to 1.0D-05 achieved.  Increase integral accuracy.
 SCF Done:  E(RB3LYP) =  -130.527661073     A.U. after   12 cycles
            NFock= 12  Conv=0.80D-09     -V/T= 2.0033
 Calling FoFJK, ICntrl=      2127 FMM=F ISym2X=1 I1Cent= 0 IOpClX= 0 NMat=1 NMatS=1 NMatT=0.
 ***** Axes restored to original set *****
 -------------------------------------------------------------------
 Center     Atomic                   Forces (Hartrees/Bohr)
 Number     Number              X              Y              Z
 -------------------------------------------------------------------
      1        7           0.036904970    0.000000000   -0.023116949
      2        1          -0.005578440    0.000000000    0.017030507
      3        8          -0.031326530   -0.000000000    0.006086442
 -------------------------------------------------------------------
 Cartesian Forces:  Max     0.036904970 RMS     0.018961726

 GradGradGradGradGradGradGradGradGradGradGradGradGradGradGradGradGradGrad
 Berny optimization.
 Using GEDIIS/GDIIS optimizer.
 FormGI is forming the generalized inverse of G from B-inverse, IUseBI=4.
 Internal  Forces:  Max     0.031225625 RMS     0.022119193
 Search for a local minimum.
 Step number   2 out of a maximum of   20
 All quantities printed in internal units (Hartrees-Bohrs-Radians)
 Mixed Optimization -- RFO/linear search
 Update second derivatives using D2CorX and points    1    2
 DE= -1.97D-02 DEPred=-2.24D-02 R= 8.77D-01
 TightC=F SS=  1.41D+00  RLast= 3.00D-01 DXNew= 5.0454D-01 9.0000D-01
 Trust test= 8.77D-01 RLast= 3.00D-01 DXMaxT set to 5.05D-01
 The second derivative matrix:
                          R1        R2        A1
           R1           0.45918
           R2           0.04891   0.55900
           A1          -0.00039   0.05177   0.27583
 ITU=  1  0
 Use linear search instead of GDIIS.
     Eigenvalues ---    0.26623   0.44139   0.58639
 RFO step:  Lambda=-3.74234110D-03 EMin= 2.66229558D-01
 Quartic linear search produced a step of  0.02798.
 Iteration  1 RMS(Cart)=  0.04989365 RMS(Int)=  0.00143261
 Iteration  2 RMS(Cart)=  0.00101432 RMS(Int)=  0.00000033
 Iteration  3 RMS(Cart)=  0.00000040 RMS(Int)=  0.00000000
 ClnCor:  largest displacement from symmetrization is 4.44D-16 for atom     2.
 Variable       Old X    -DE/DX   Delta X   Delta X   Delta X     New X
                                 (Linear)    (Quad)   (Total)
    R1        1.94590   0.01611   0.00157   0.03976   0.04133   1.98723
    R2        2.31897  -0.03123  -0.00385  -0.06088  -0.06473   2.25423
    A1        1.83384   0.01527  -0.00729   0.07677   0.06948   1.90332
         Item               Value     Threshold  Converged?
 Maximum Force            0.031226     0.000450     NO 
 RMS     Force            0.022119     0.000300     NO 
 Maximum Displacement     0.056544     0.001800     NO 
 RMS     Displacement     0.049780     0.001200     NO 
 Predicted change in Energy=-1.883795D-03
 GradGradGradGradGradGradGradGradGradGradGradGradGradGradGradGradGradGrad

                          Input orientation:                          
 ---------------------------------------------------------------------
 Center     Atomic      Atomic             Coordinates (Angstroms)
 Number     Number       Type             X           Y           Z
 ---------------------------------------------------------------------
      1          7           0       -0.018372   -0.000000   -0.070485
      2          1           0        0.073243    0.000000    0.977115
      3          8           0        1.070962    0.000000   -0.556630
 ---------------------------------------------------------------------
                    Distance matrix (angstroms):
                    1          2          3
     1  N    0.000000
     2  H    1.051598   0.000000
     3  O    1.192889   1.829704   0.000000
 Stoichiometry    HNO
 Framework group  CS[SG(HNO)]
 Deg. of freedom     3
 Full point group                 CS      NOp   2
 Largest Abelian subgroup         CS      NOp   2
 Largest concise Abelian subgroup C1      NOp   1
                         Standard orientation:                         
 ---------------------------------------------------------------------
 Center     Atomic      Atomic             Coordinates (Angstroms)
 Number     Number       Type             X           Y           Z
 ---------------------------------------------------------------------
      1          7           0        0.062125    0.574990   -0.000000
      2          1           0       -0.931869    0.918263    0.000000
      3          8           0        0.062125   -0.617899    0.000000
 ---------------------------------------------------------------------
 Rotational constants (GHZ):         574.9226101          43.4020514          40.3555320
 Basis read from rwf:  (5D, 7F)
 There are    59 symmetry adapted cartesian basis functions of A'  symmetry.
 There are    26 symmetry adapted cartesian basis functions of A"  symmetry.
 There are    50 symmetry adapted basis functions of A'  symmetry.
 There are    24 symmetry adapted basis functions of A"  symmetry.
    74 basis functions,   120 primitive gaussians,    85 cartesian basis functions
     8 alpha electrons        8 beta electrons
       nuclear repulsion energy        30.6783433523 Hartrees.
 NAtoms=    3 NActive=    3 NUniq=    3 SFac= 1.00D+00 NAtFMM=   60 NAOKFM=F Big=F
 Integral buffers will be    131072 words long.
 Raffenetti 2 integral format.
 Two-electron integral symmetry is turned on.
 One-electron integrals computed using PRISM.
 NBasis=    74 RedAO= T EigKep=  1.10D-03  NBF=    50    24
 NBsUse=    74 1.00D-06 EigRej= -1.00D+00 NBFU=    50    24
 Initial guess from the checkpoint file:  "/wrk/irikura/Gau-15608.chk"
 B after Tr=    -0.000000   -0.000000   -0.000000
         Rot=    0.999993   -0.000000    0.000000    0.003705 Ang=   0.42 deg.
 Initial guess orbital symmetries:
       Occupied  (A') (A') (A') (A') (A') (A") (A') (A')
       Virtual   (A") (A') (A') (A") (A') (A') (A') (A') (A') (A")
                 (A') (A') (A") (A') (A') (A") (A') (A") (A') (A')
                 (A') (A") (A') (A") (A') (A') (A") (A') (A") (A')
                 (A') (A') (A') (A") (A') (A") (A') (A") (A') (A')
                 (A") (A") (A') (A') (A') (A") (A') (A') (A') (A")
                 (A") (A") (A') (A') (A") (A') (A") (A') (A") (A')
                 (A') (A') (A") (A') (A') (A')
 ExpMin= 7.42D-02 ExpMax= 1.36D+04 ExpMxC= 4.64D+02 IAcc=3 IRadAn=         5 AccDes= 0.00D+00
 Harris functional with IExCor=  402 and IRadAn=       5 diagonalized for initial guess.
 HarFok:  IExCor=  402 AccDes= 0.00D+00 IRadAn=         5 IDoV= 1 UseB2=F ITyADJ=14
 ICtDFT=  3500011 ScaDFX=  1.000000  1.000000  1.000000  1.000000
 FoFCou: FMM=F IPFlag=           0 FMFlag=      100000 FMFlg1=           0
         NFxFlg=           0 DoJE=T BraDBF=F KetDBF=T FulRan=T
         wScrn=  0.000000 ICntrl=       500 IOpCl=  0 I1Cent=   200000004 NGrid=           0
         NMat0=    1 NMatS0=      1 NMatT0=    0 NMatD0=    1 NMtDS0=    0 NMtDT0=    0
 Petite list used in FoFCou.
 Keep R1 ints in memory in symmetry-blocked form, NReq=5826361.
 Requested convergence on RMS density matrix=1.00D-08 within 128 cycles.
 Requested convergence on MAX density matrix=1.00D-06.
 Requested convergence on             energy=1.00D-06.
 No special actions if energy rises.
 Integral accuracy reduced to 1.0D-05 until final iterations.
 Initial convergence to 1.0D-05 achieved.  Increase integral accuracy.
 SCF Done:  E(RB3LYP) =  -130.529424515     A.U. after   11 cycles
            NFock= 11  Conv=0.46D-08     -V/T= 2.0027
 Calling FoFJK, ICntrl=      2127 FMM=F ISym2X=1 I1Cent= 0 IOpClX= 0 NMat=1 NMatS=1 NMatT=0.
 ***** Axes restored to original set *****
 -------------------------------------------------------------------
 Center     Atomic                   Forces (Hartrees/Bohr)
 Number     Number              X              Y              Z
 -------------------------------------------------------------------
      1        7          -0.008769042   -0.000000000   -0.002845652
      2        1           0.000723109    0.000000000    0.006268241
      3        8           0.008045932    0.000000000   -0.003422588
 -------------------------------------------------------------------
 Cartesian Forces:  Max     0.008769042 RMS     0.004728856

 GradGradGradGradGradGradGradGradGradGradGradGradGradGradGradGradGradGrad
 Berny optimization.
 Using GEDIIS/GDIIS optimizer.
 FormGI is forming the generalized inverse of G from B-inverse, IUseBI=4.
 Internal  Forces:  Max     0.008742306 RMS     0.006227114
 Search for a local minimum.
 Step number   3 out of a maximum of   20
 All quantities printed in internal units (Hartrees-Bohrs-Radians)
 Mixed Optimization -- RFO/linear search
 Update second derivatives using D2CorX and points    1    2    3
 DE= -1.76D-03 DEPred=-1.88D-03 R= 9.36D-01
 TightC=F SS=  1.41D+00  RLast= 1.04D-01 DXNew= 8.4853D-01 3.1071D-01
 Trust test= 9.36D-01 RLast= 1.04D-01 DXMaxT set to 5.05D-01
 The second derivative matrix:
                          R1        R2        A1
           R1           0.41140
           R2           0.09632   0.72111
           A1          -0.01390   0.03929   0.26962
 ITU=  1  1  0
 Use linear search instead of GDIIS.
     Eigenvalues ---    0.26244   0.38866   0.75103
 RFO step:  Lambda=-1.49291092D-04 EMin= 2.62442665D-01
 Quartic linear search produced a step of -0.07517.
 Iteration  1 RMS(Cart)=  0.00798771 RMS(Int)=  0.00000468
 Iteration  2 RMS(Cart)=  0.00000543 RMS(Int)=  0.00000000
 Iteration  3 RMS(Cart)=  0.00000000 RMS(Int)=  0.00000000
 ClnCor:  largest displacement from symmetrization is 1.83D-15 for atom     2.
 Variable       Old X    -DE/DX   Delta X   Delta X   Delta X     New X
                                 (Linear)    (Quad)   (Total)
    R1        1.98723   0.00631  -0.00311   0.01619   0.01308   2.00031
    R2        2.25423   0.00874   0.00487   0.00540   0.01027   2.26450
    A1        1.90332  -0.00035  -0.00522   0.00366  -0.00156   1.90176
         Item               Value     Threshold  Converged?
 Maximum Force            0.008742     0.000450     NO 
 RMS     Force            0.006227     0.000300     NO 
 Maximum Displacement     0.009268     0.001800     NO 
 RMS     Displacement     0.007985     0.001200     NO 
 Predicted change in Energy=-8.668126D-05
 GradGradGradGradGradGradGradGradGradGradGradGradGradGradGradGradGradGrad

                          Input orientation:                          
 ---------------------------------------------------------------------
 Center     Atomic      Atomic             Coordinates (Angstroms)
 Number     Number       Type             X           Y           Z
 ---------------------------------------------------------------------
      1          7           0       -0.020567   -0.000000   -0.072434
      2          1           0        0.072133    0.000000    0.982020
      3          8           0        1.074268    0.000000   -0.559585
 ---------------------------------------------------------------------
                    Distance matrix (angstroms):
                    1          2          3
     1  N    0.000000
     2  H    1.058521   0.000000
     3  O    1.198324   1.838701   0.000000
 Stoichiometry    HNO
 Framework group  CS[SG(HNO)]
 Deg. of freedom     3
 Full point group                 CS      NOp   2
 Largest Abelian subgroup         CS      NOp   2
 Largest concise Abelian subgroup C1      NOp   1
                         Standard orientation:                         
 ---------------------------------------------------------------------
 Center     Atomic      Atomic             Coordinates (Angstroms)
 Number     Number       Type             X           Y           Z
 ---------------------------------------------------------------------
      1          7           0        0.062567    0.577664   -0.000000
      2          1           0       -0.938508    0.921633    0.000000
      3          8           0        0.062567   -0.620660    0.000000
 ---------------------------------------------------------------------
 Rotational constants (GHZ):         566.7533988          43.0141454          39.9798470
 Basis read from rwf:  (5D, 7F)
 There are    59 symmetry adapted cartesian basis functions of A'  symmetry.
 There are    26 symmetry adapted cartesian basis functions of A"  symmetry.
 There are    50 symmetry adapted basis functions of A'  symmetry.
 There are    24 symmetry adapted basis functions of A"  symmetry.
    74 basis functions,   120 primitive gaussians,    85 cartesian basis functions
     8 alpha electrons        8 beta electrons
       nuclear repulsion energy        30.5313271047 Hartrees.
 NAtoms=    3 NActive=    3 NUniq=    3 SFac= 1.00D+00 NAtFMM=   60 NAOKFM=F Big=F
 Integral buffers will be    131072 words long.
 Raffenetti 2 integral format.
 Two-electron integral symmetry is turned on.
 One-electron integrals computed using PRISM.
 NBasis=    74 RedAO= T EigKep=  1.12D-03  NBF=    50    24
 NBsUse=    74 1.00D-06 EigRej= -1.00D+00 NBFU=    50    24
 Initial guess from the checkpoint file:  "/wrk/irikura/Gau-15608.chk"
 B after Tr=     0.000000    0.000000    0.000000
         Rot=    1.000000    0.000000   -0.000000   -0.000220 Ang=  -0.03 deg.
 Initial guess orbital symmetries:
       Occupied  (A') (A') (A') (A') (A') (A") (A') (A')
       Virtual   (A") (A') (A') (A") (A') (A') (A') (A') (A') (A")
                 (A') (A') (A") (A') (A') (A") (A') (A") (A') (A')
                 (A') (A") (A') (A") (A') (A') (A") (A') (A") (A')
                 (A') (A') (A') (A") (A') (A") (A') (A") (A') (A')
                 (A") (A") (A') (A') (A") (A') (A') (A') (A') (A")
                 (A") (A") (A') (A') (A") (A") (A') (A') (A") (A')
                 (A') (A') (A") (A') (A') (A')
 Keep R1 ints in memory in symmetry-blocked form, NReq=5826347.
 Requested convergence on RMS density matrix=1.00D-08 within 128 cycles.
 Requested convergence on MAX density matrix=1.00D-06.
 Requested convergence on             energy=1.00D-06.
 No special actions if energy rises.
 SCF Done:  E(RB3LYP) =  -130.529518761     A.U. after    8 cycles
            NFock=  8  Conv=0.52D-08     -V/T= 2.0029
 Calling FoFJK, ICntrl=      2127 FMM=F ISym2X=1 I1Cent= 0 IOpClX= 0 NMat=1 NMatS=1 NMatT=0.
 ***** Axes restored to original set *****
 -------------------------------------------------------------------
 Center     Atomic                   Forces (Hartrees/Bohr)
 Number     Number              X              Y              Z
 -------------------------------------------------------------------
      1        7          -0.000152541   -0.000000000   -0.002133817
      2        1           0.000530531    0.000000000    0.001589382
      3        8          -0.000377990    0.000000000    0.000544435
 -------------------------------------------------------------------
 Cartesian Forces:  Max     0.002133817 RMS     0.000932340

 GradGradGradGradGradGradGradGradGradGradGradGradGradGradGradGradGradGrad
 Berny optimization.
 Using GEDIIS/GDIIS optimizer.
 FormGI is forming the generalized inverse of G from B-inverse, IUseBI=4.
 Internal  Forces:  Max     0.001629707 RMS     0.001092893
 Search for a local minimum.
 Step number   4 out of a maximum of   20
 All quantities printed in internal units (Hartrees-Bohrs-Radians)
 Mixed Optimization -- RFO/linear search
 Update second derivatives using D2CorX and points    1    2    3    4
 DE= -9.42D-05 DEPred=-8.67D-05 R= 1.09D+00
 TightC=F SS=  1.41D+00  RLast= 1.67D-02 DXNew= 8.4853D-01 5.0112D-02
 Trust test= 1.09D+00 RLast= 1.67D-02 DXMaxT set to 5.05D-01
 The second derivative matrix:
                          R1        R2        A1
           R1           0.30698
           R2           0.06510   0.83556
           A1           0.00420   0.07907   0.27831
 ITU=  1  1  1  0
 Use linear search instead of GDIIS.
     Eigenvalues ---    0.26661   0.29995   0.85430
 RFO step:  Lambda=-9.86152218D-06 EMin= 2.66612680D-01
 Quartic linear search produced a step of  0.10952.
 Iteration  1 RMS(Cart)=  0.00246891 RMS(Int)=  0.00000240
 Iteration  2 RMS(Cart)=  0.00000245 RMS(Int)=  0.00000000
 Iteration  3 RMS(Cart)=  0.00000000 RMS(Int)=  0.00000000
 ClnCor:  largest displacement from symmetrization is 4.44D-16 for atom     3.
 Variable       Old X    -DE/DX   Delta X   Delta X   Delta X     New X
                                 (Linear)    (Quad)   (Total)
    R1        2.00031   0.00163   0.00143   0.00415   0.00558   2.00590
    R2        2.26450  -0.00057   0.00112  -0.00197  -0.00085   2.26366
    A1        1.90176  -0.00078  -0.00017  -0.00248  -0.00265   1.89911
         Item               Value     Threshold  Converged?
 Maximum Force            0.001630     0.000450     NO 
 RMS     Force            0.001093     0.000300     NO 
 Maximum Displacement     0.003178     0.001800     NO 
 RMS     Displacement     0.002469     0.001200     NO 
 Predicted change in Energy=-5.773204D-06
 GradGradGradGradGradGradGradGradGradGradGradGradGradGradGradGradGradGrad

                          Input orientation:                          
 ---------------------------------------------------------------------
 Center     Atomic      Atomic             Coordinates (Angstroms)
 Number     Number       Type             X           Y           Z
 ---------------------------------------------------------------------
      1          7           0       -0.021104   -0.000000   -0.074116
      2          1           0        0.072727    0.000000    0.983204
      3          8           0        1.074209    0.000000   -0.559087
 ---------------------------------------------------------------------
                    Distance matrix (angstroms):
                    1          2          3
     1  N    0.000000
     2  H    1.061475   0.000000
     3  O    1.197876   1.838920   0.000000
 Stoichiometry    HNO
 Framework group  CS[SG(HNO)]
 Deg. of freedom     3
 Full point group                 CS      NOp   2
 Largest Abelian subgroup         CS      NOp   2
 Largest concise Abelian subgroup C1      NOp   1
                         Standard orientation:                         
 ---------------------------------------------------------------------
 Center     Atomic      Atomic             Coordinates (Angstroms)
 Number     Number       Type             X           Y           Z
 ---------------------------------------------------------------------
      1          7           0        0.062799    0.577546   -0.000000
      2          1           0       -0.941981    0.919815    0.000000
      3          8           0        0.062799   -0.620330    0.000000
 ---------------------------------------------------------------------
 Rotational constants (GHZ):         562.4623331          43.0554698          39.9940017
 Basis read from rwf:  (5D, 7F)
 There are    59 symmetry adapted cartesian basis functions of A'  symmetry.
 There are    26 symmetry adapted cartesian basis functions of A"  symmetry.
 There are    50 symmetry adapted basis functions of A'  symmetry.
 There are    24 symmetry adapted basis functions of A"  symmetry.
    74 basis functions,   120 primitive gaussians,    85 cartesian basis functions
     8 alpha electrons        8 beta electrons
       nuclear repulsion energy        30.5305494033 Hartrees.
 NAtoms=    3 NActive=    3 NUniq=    3 SFac= 1.00D+00 NAtFMM=   60 NAOKFM=F Big=F
 Integral buffers will be    131072 words long.
 Raffenetti 2 integral format.
 Two-electron integral symmetry is turned on.
 One-electron integrals computed using PRISM.
 NBasis=    74 RedAO= T EigKep=  1.12D-03  NBF=    50    24
 NBsUse=    74 1.00D-06 EigRej= -1.00D+00 NBFU=    50    24
 Initial guess from the checkpoint file:  "/wrk/irikura/Gau-15608.chk"
 B after Tr=    -0.000000   -0.000000   -0.000000
         Rot=    1.000000   -0.000000   -0.000000   -0.000363 Ang=  -0.04 deg.
 Initial guess orbital symmetries:
       Occupied  (A') (A') (A') (A') (A') (A") (A') (A')
       Virtual   (A") (A') (A') (A") (A') (A') (A') (A') (A') (A")
                 (A') (A') (A") (A') (A') (A") (A') (A") (A') (A')
                 (A') (A") (A') (A") (A') (A') (A") (A') (A") (A')
                 (A') (A') (A') (A") (A') (A") (A') (A') (A") (A')
                 (A") (A") (A') (A') (A") (A') (A') (A') (A') (A")
                 (A") (A") (A') (A') (A") (A") (A') (A') (A") (A')
                 (A') (A') (A") (A') (A') (A')
 Keep R1 ints in memory in symmetry-blocked form, NReq=5826347.
 Requested convergence on RMS density matrix=1.00D-08 within 128 cycles.
 Requested convergence on MAX density matrix=1.00D-06.
 Requested convergence on             energy=1.00D-06.
 No special actions if energy rises.
 SCF Done:  E(RB3LYP) =  -130.529524413     A.U. after    8 cycles
            NFock=  8  Conv=0.22D-08     -V/T= 2.0029
 Calling FoFJK, ICntrl=      2127 FMM=F ISym2X=1 I1Cent= 0 IOpClX= 0 NMat=1 NMatS=1 NMatT=0.
 ***** Axes restored to original set *****
 -------------------------------------------------------------------
 Center     Atomic                   Forces (Hartrees/Bohr)
 Number     Number              X              Y              Z
 -------------------------------------------------------------------
      1        7           0.000112083    0.000000000    0.000036262
      2        1          -0.000087496   -0.000000000    0.000040991
      3        8          -0.000024587   -0.000000000   -0.000077253
 -------------------------------------------------------------------
 Cartesian Forces:  Max     0.000112083 RMS     0.000057529

 GradGradGradGradGradGradGradGradGradGradGradGradGradGradGradGradGradGrad
 Berny optimization.
 Using GEDIIS/GDIIS optimizer.
 FormGI is forming the generalized inverse of G from B-inverse, IUseBI=4.
 Internal  Forces:  Max     0.000182244 RMS     0.000107058
 Search for a local minimum.
 Step number   5 out of a maximum of   20
 All quantities printed in internal units (Hartrees-Bohrs-Radians)
 Mixed Optimization -- En-DIIS/RFO-DIIS
 Update second derivatives using D2CorX and points    2    3    4    5
 DE= -5.65D-06 DEPred=-5.77D-06 R= 9.79D-01
 TightC=F SS=  1.41D+00  RLast= 6.24D-03 DXNew= 8.4853D-01 1.8711D-02
 Trust test= 9.79D-01 RLast= 6.24D-03 DXMaxT set to 5.05D-01
 The second derivative matrix:
                          R1        R2        A1
           R1           0.28930
           R2           0.06002   0.81203
           A1          -0.01220   0.08452   0.31000
 ITU=  1  1  1  1
 Use linear search instead of GDIIS.
     Eigenvalues ---    0.26714   0.31226   0.83193
 RFO step:  Lambda=-1.08072254D-07 EMin= 2.67138408D-01
 Quartic linear search produced a step of -0.02578.
 Iteration  1 RMS(Cart)=  0.00041531 RMS(Int)=  0.00000009
 Iteration  2 RMS(Cart)=  0.00000007 RMS(Int)=  0.00000000
 ClnCor:  largest displacement from symmetrization is 7.45D-16 for atom     2.
 Variable       Old X    -DE/DX   Delta X   Delta X   Delta X     New X
                                 (Linear)    (Quad)   (Total)
    R1        2.00590   0.00003  -0.00014   0.00030   0.00015   2.00605
    R2        2.26366   0.00001   0.00002  -0.00009  -0.00006   2.26359
    A1        1.89911   0.00018   0.00007   0.00054   0.00061   1.89972
         Item               Value     Threshold  Converged?
 Maximum Force            0.000182     0.000450     YES
 RMS     Force            0.000107     0.000300     YES
 Maximum Displacement     0.000404     0.001800     YES
 RMS     Displacement     0.000415     0.001200     YES
 Predicted change in Energy=-5.796440D-08
 Optimization completed.
    -- Stationary point found.
                           ----------------------------
                           !   Optimized Parameters   !
                           ! (Angstroms and Degrees)  !
 --------------------------                            --------------------------
 ! Name  Definition              Value          Derivative Info.                !
 --------------------------------------------------------------------------------
 ! R1    R(1,2)                  1.0615         -DE/DX =    0.0                 !
 ! R2    R(1,3)                  1.1979         -DE/DX =    0.0                 !
 ! A1    A(2,1,3)              108.8109         -DE/DX =    0.0002              !
 --------------------------------------------------------------------------------
 GradGradGradGradGradGradGradGradGradGradGradGradGradGradGradGradGradGrad

                          Input orientation:                          
 ---------------------------------------------------------------------
 Center     Atomic      Atomic             Coordinates (Angstroms)
 Number     Number       Type             X           Y           Z
 ---------------------------------------------------------------------
      1          7           0       -0.021104   -0.000000   -0.074116
      2          1           0        0.072727    0.000000    0.983204
      3          8           0        1.074209    0.000000   -0.559087
 ---------------------------------------------------------------------
                    Distance matrix (angstroms):
                    1          2          3
     1  N    0.000000
     2  H    1.061475   0.000000
     3  O    1.197876   1.838920   0.000000
 Stoichiometry    HNO
 Framework group  CS[SG(HNO)]
 Deg. of freedom     3
 Full point group                 CS      NOp   2
 Largest Abelian subgroup         CS      NOp   2
 Largest concise Abelian subgroup C1      NOp   1
                         Standard orientation:                         
 ---------------------------------------------------------------------
 Center     Atomic      Atomic             Coordinates (Angstroms)
 Number     Number       Type             X           Y           Z
 ---------------------------------------------------------------------
      1          7           0        0.062799    0.577546   -0.000000
      2          1           0       -0.941981    0.919815    0.000000
      3          8           0        0.062799   -0.620330    0.000000
 ---------------------------------------------------------------------
 Rotational constants (GHZ):         562.4623331          43.0554698          39.9940017

 **********************************************************************

            Population analysis using the SCF Density.

 **********************************************************************

 Orbital symmetries:
       Occupied  (A') (A') (A') (A') (A') (A") (A') (A')
       Virtual   (A") (A') (A') (A") (A') (A') (A') (A') (A') (A")
                 (A') (A') (A") (A') (A') (A") (A') (A") (A') (A')
                 (A') (A") (A') (A") (A') (A') (A") (A') (A") (A')
                 (A') (A') (A') (A") (A') (A") (A') (A') (A") (A')
                 (A") (A") (A') (A') (A") (A') (A') (A') (A') (A")
                 (A") (A") (A') (A') (A") (A") (A') (A') (A") (A')
                 (A') (A') (A") (A') (A') (A')
 The electronic state is 1-A'.
 Alpha  occ. eigenvalues --  -19.21596 -14.45140  -1.19195  -0.73525  -0.54677
 Alpha  occ. eigenvalues --   -0.47780  -0.46619  -0.25587
 Alpha virt. eigenvalues --   -0.11931   0.00853   0.14022   0.24320   0.24422
 Alpha virt. eigenvalues --    0.26726   0.32975   0.36258   0.38589   0.38925
 Alpha virt. eigenvalues --    0.44368   0.70495   0.72840   0.81852   1.06160
 Alpha virt. eigenvalues --    1.18177   1.18336   1.30771   1.39555   1.51540
 Alpha virt. eigenvalues --    1.60585   1.64950   1.66234   1.75255   1.89250
 Alpha virt. eigenvalues --    1.96496   1.99936   2.04238   2.39809   2.48746
 Alpha virt. eigenvalues --    2.50629   2.73603   2.92597   3.27117   3.33425
 Alpha virt. eigenvalues --    3.37823   3.68567   3.69734   3.70032   3.92622
 Alpha virt. eigenvalues --    3.94400   4.01495   4.05812   4.17161   4.35281
 Alpha virt. eigenvalues --    4.42197   4.43401   4.60195   4.65754   4.78715
 Alpha virt. eigenvalues --    5.06949   5.16571   5.26183   5.37405   5.49722
 Alpha virt. eigenvalues --    5.80712   5.84693   5.91347   6.00621   6.03747
 Alpha virt. eigenvalues --    6.22763   6.34502   6.39676   6.54651   7.05264
 Alpha virt. eigenvalues --    7.37418
          Condensed to atoms (all electrons):
               1          2          3
     1  N    6.493803   0.204720   0.235618
     2  H    0.204720   0.759055  -0.080974
     3  O    0.235618  -0.080974   8.028415
 Mulliken charges:
               1
     1  N    0.065859
     2  H    0.117200
     3  O   -0.183058
 Sum of Mulliken charges =  -0.00000
 Mulliken charges with hydrogens summed into heavy atoms:
               1
     1  N    0.183058
     3  O   -0.183058
 Electronic spatial extent (au):  <R**2>=             50.9136
 Charge=             -0.0000 electrons
 Dipole moment (field-independent basis, Debye):
    X=             -1.4475    Y=              0.9371    Z=              0.0000  Tot=              1.7244
 Quadrupole moment (field-independent basis, Debye-Ang):
   XX=            -11.2065   YY=            -12.0616   ZZ=            -10.6008
   XY=             -1.4404   XZ=             -0.0000   YZ=              0.0000
 Traceless Quadrupole moment (field-independent basis, Debye-Ang):
   XX=              0.0832   YY=             -0.7719   ZZ=              0.6888
   XY=             -1.4404   XZ=             -0.0000   YZ=              0.0000
 Octapole moment (field-independent basis, Debye-Ang**2):
  XXX=             -1.5323  YYY=             -1.2544  ZZZ=              0.0000  XYY=             -1.6406
  XXY=              0.1023  XXZ=              0.0000  XZZ=             -0.2049  YZZ=             -0.5113
  YYZ=              0.0000  XYZ=             -0.0000
 Hexadecapole moment (field-independent basis, Debye-Ang**3):
 XXXX=            -13.8432 YYYY=            -37.2316 ZZZZ=             -8.6118 XXXY=              0.6035
 XXXZ=             -0.0000 YYYX=             -0.1349 YYYZ=              0.0000 ZZZX=             -0.0000
 ZZZY=              0.0000 XXYY=             -8.8982 XXZZ=             -3.9030 YYZZ=             -7.3859
 XXYZ=              0.0000 YYXZ=             -0.0000 ZZXY=              0.3853
 N-N= 3.053054940332D+01 E-N=-3.684253206275D+02  KE= 1.301492296991D+02
 Symmetry A'   KE= 1.261517732661D+02
 Symmetry A"   KE= 3.997456432936D+00
 1\1\GINC-GAMBA\FOpt\RB3LYP\Gen\H1N1O1\IRIKURA\02-Feb-2022\0\\# b3lyp/g
 en opt freq\\HNO, B3LYP/pcseg-2\\0,1\N,-0.0211035478,0.,-0.0741161927\
 H,0.0727271571,0.,0.9832036347\O,1.0742094155,0.,-0.559087442\\Version
 =ES64L-G16RevB.01\State=1-A'\HF=-130.5295244\RMSD=2.200e-09\RMSF=5.753
 e-05\Dipole=-0.1065574,0.,0.6699954\Quadrupole=-1.2626275,0.5121003,0.
 7505273,0.,-0.4845076,0.\PG=CS [SG(H1N1O1)]\\@


 I take a simple view of life: keep your eyes open and get on with it.
 -- Laurence Olivier
 Job cpu time:       0 days  0 hours  0 minutes 30.9 seconds.
 Elapsed time:       0 days  0 hours  0 minutes 30.5 seconds.
 File lengths (MBytes):  RWF=      6 Int=      0 D2E=      0 Chk=      2 Scr=      1
 Normal termination of Gaussian 16 at Wed Feb  2 17:56:59 2022.
 Link1:  Proceeding to internal job step number  2.
 ------------------------------------------------------------------
 #N Geom=AllCheck Guess=TCheck SCRF=Check GenChk RB3LYP/ChkBas Freq
 ------------------------------------------------------------------
 1/10=4,29=7,30=1,38=1,40=1/1,3;
 2/12=2,40=1/2;
 3/5=7,6=2,11=2,14=-4,25=1,30=1,67=1,70=2,71=2,74=-5,82=7,116=1,140=1/1,2,3;
 4/5=101/1;
 5/5=2,38=6,98=1/2;
 8/6=4,10=90,11=11/1;
 11/6=1,8=1,9=11,15=111,16=1/1,2,10;
 10/6=1/2;
 6/7=2,8=2,9=2,10=2,28=1/1;
 7/8=1,10=1,25=1/1,2,3,16;
 1/10=4,30=1/3;
 99//99;
 Structure from the checkpoint file:  "/wrk/irikura/Gau-15608.chk"
 ------------------
 HNO, B3LYP/pcseg-2
 ------------------
 Charge =  0 Multiplicity = 1
 Redundant internal coordinates found in file.  (old form).
 N,0,-0.0211035478,0.,-0.0741161927
 H,0,0.0727271571,0.,0.9832036347
 O,0,1.0742094155,0.,-0.559087442
 Recover connectivity data from disk.

 GradGradGradGradGradGradGradGradGradGradGradGradGradGradGradGradGradGrad
 Berny optimization.
 Initialization pass.
                           ----------------------------
                           !    Initial Parameters    !
                           ! (Angstroms and Degrees)  !
 --------------------------                            --------------------------
 ! Name  Definition              Value          Derivative Info.                !
 --------------------------------------------------------------------------------
 ! R1    R(1,2)                  1.0615         calculate D2E/DX2 analytically  !
 ! R2    R(1,3)                  1.1979         calculate D2E/DX2 analytically  !
 ! A1    A(2,1,3)              108.8109         calculate D2E/DX2 analytically  !
 --------------------------------------------------------------------------------
 Trust Radius=3.00D-01 FncErr=1.00D-07 GrdErr=1.00D-07 EigMax=2.50D+02 EigMin=1.00D-04
 Number of steps in this run=      2 maximum allowed number of steps=      2.
 GradGradGradGradGradGradGradGradGradGradGradGradGradGradGradGradGradGrad

                          Input orientation:                          
 ---------------------------------------------------------------------
 Center     Atomic      Atomic             Coordinates (Angstroms)
 Number     Number       Type             X           Y           Z
 ---------------------------------------------------------------------
      1          7           0       -0.021104   -0.000000   -0.074116
      2          1           0        0.072727    0.000000    0.983204
      3          8           0        1.074209    0.000000   -0.559087
 ---------------------------------------------------------------------
                    Distance matrix (angstroms):
                    1          2          3
     1  N    0.000000
     2  H    1.061475   0.000000
     3  O    1.197876   1.838920   0.000000
 Stoichiometry    HNO
 Framework group  CS[SG(HNO)]
 Deg. of freedom     3
 Full point group                 CS      NOp   2
 Largest Abelian subgroup         CS      NOp   2
 Largest concise Abelian subgroup C1      NOp   1
                         Standard orientation:                         
 ---------------------------------------------------------------------
 Center     Atomic      Atomic             Coordinates (Angstroms)
 Number     Number       Type             X           Y           Z
 ---------------------------------------------------------------------
      1          7           0        0.062799    0.577546   -0.000000
      2          1           0       -0.941981    0.919815    0.000000
      3          8           0        0.062799   -0.620330    0.000000
 ---------------------------------------------------------------------
 Rotational constants (GHZ):         562.4623331          43.0554698          39.9940017
 Basis read from chk: "/wrk/irikura/Gau-15608.chk" (5D, 7F)
 There are    59 symmetry adapted cartesian basis functions of A'  symmetry.
 There are    26 symmetry adapted cartesian basis functions of A"  symmetry.
 There are    50 symmetry adapted basis functions of A'  symmetry.
 There are    24 symmetry adapted basis functions of A"  symmetry.
    74 basis functions,   120 primitive gaussians,    85 cartesian basis functions
     8 alpha electrons        8 beta electrons
       nuclear repulsion energy        30.5305494033 Hartrees.
 NAtoms=    3 NActive=    3 NUniq=    3 SFac= 1.00D+00 NAtFMM=   60 NAOKFM=F Big=F
 Integral buffers will be    131072 words long.
 Raffenetti 2 integral format.
 Two-electron integral symmetry is turned on.
 One-electron integrals computed using PRISM.
 NBasis=    74 RedAO= T EigKep=  1.12D-03  NBF=    50    24
 NBsUse=    74 1.00D-06 EigRej= -1.00D+00 NBFU=    50    24
 Initial guess from the checkpoint file:  "/wrk/irikura/Gau-15608.chk"
 B after Tr=     0.000000    0.000000   -0.000000
         Rot=    1.000000    0.000000   -0.000000   -0.000000 Ang=   0.00 deg.
 Initial guess orbital symmetries:
       Occupied  (A') (A') (A') (A') (A') (A") (A') (A')
       Virtual   (A") (A') (A') (A") (A') (A') (A') (A') (A') (A")
                 (A') (A') (A") (A') (A') (A") (A') (A") (A') (A')
                 (A') (A") (A') (A") (A') (A') (A") (A') (A") (A')
                 (A') (A') (A') (A") (A') (A") (A') (A') (A") (A')
                 (A") (A") (A') (A') (A") (A') (A') (A') (A') (A")
                 (A") (A") (A') (A') (A") (A") (A') (A') (A") (A')
                 (A') (A') (A") (A') (A') (A')
 Keep R1 ints in memory in symmetry-blocked form, NReq=5826347.
 Requested convergence on RMS density matrix=1.00D-08 within 128 cycles.
 Requested convergence on MAX density matrix=1.00D-06.
 Requested convergence on             energy=1.00D-06.
 No special actions if energy rises.
 SCF Done:  E(RB3LYP) =  -130.529524413     A.U. after    1 cycles
            NFock=  1  Conv=0.45D-09     -V/T= 2.0029
 DoSCS=F DFT=T ScalE2(SS,OS)=  1.000000  1.000000
 Range of M.O.s used for correlation:     1    74
 NBasis=    74 NAE=     8 NBE=     8 NFC=     0 NFV=     0
 NROrb=     74 NOA=     8 NOB=     8 NVA=    66 NVB=    66

 **** Warning!!: The largest alpha MO coefficient is  0.14875736D+02

 Symmetrizing basis deriv contribution to polar:
 IMax=3 JMax=2 DiffMx= 0.00D+00
 G2DrvN: will do     4 centers at a time, making    1 passes.
 Calling FoFCou, ICntrl=  3107 FMM=F I1Cent=   0 AccDes= 0.00D+00.
 End of G2Drv F.D. properties file   721 does not exist.
 End of G2Drv F.D. properties file   722 does not exist.
 End of G2Drv F.D. properties file   788 does not exist.
          IDoAtm=111
          Differentiating once with respect to electric field.
                with respect to dipole field.
          Differentiating once with respect to nuclear coordinates.
 Keep R1 ints in memory in symmetry-blocked form, NReq=5827811.
          There are    12 degrees of freedom in the 1st order CPHF.  IDoFFX=6 NUNeed=     3.
      9 vectors produced by pass  0 Test12= 4.40D-15 8.33D-09 XBig12= 1.43D+01 3.16D+00.
 AX will form     9 AO Fock derivatives at one time.
      9 vectors produced by pass  1 Test12= 4.40D-15 8.33D-09 XBig12= 9.39D+00 9.66D-01.
      9 vectors produced by pass  2 Test12= 4.40D-15 8.33D-09 XBig12= 1.40D-01 1.13D-01.
      9 vectors produced by pass  3 Test12= 4.40D-15 8.33D-09 XBig12= 8.40D-04 8.00D-03.
      9 vectors produced by pass  4 Test12= 4.40D-15 8.33D-09 XBig12= 2.82D-06 4.32D-04.
      9 vectors produced by pass  5 Test12= 4.40D-15 8.33D-09 XBig12= 3.88D-09 1.70D-05.
      4 vectors produced by pass  6 Test12= 4.40D-15 8.33D-09 XBig12= 4.89D-12 6.39D-07.
      2 vectors produced by pass  7 Test12= 4.40D-15 8.33D-09 XBig12= 4.83D-15 1.25D-08.
 InvSVY:  IOpt=1 It=  1 EMax= 1.11D-15
 Solved reduced A of dimension    60 with     9 vectors.
 Isotropic polarizability for W=    0.000000       12.72 Bohr**3.
 End of Minotr F.D. properties file   721 does not exist.
 End of Minotr F.D. properties file   722 does not exist.
 End of Minotr F.D. properties file   788 does not exist.

 **********************************************************************

            Population analysis using the SCF Density.

 **********************************************************************

 Orbital symmetries:
       Occupied  (A') (A') (A') (A') (A') (A") (A') (A')
       Virtual   (A") (A') (A') (A") (A') (A') (A') (A') (A') (A")
                 (A') (A') (A") (A') (A') (A") (A') (A") (A') (A')
                 (A') (A") (A') (A") (A') (A') (A") (A') (A") (A')
                 (A') (A') (A') (A") (A') (A") (A') (A') (A") (A')
                 (A") (A") (A') (A') (A") (A') (A') (A') (A') (A")
                 (A") (A") (A') (A') (A") (A") (A') (A') (A") (A')
                 (A') (A') (A") (A') (A') (A')
 The electronic state is 1-A'.
 Alpha  occ. eigenvalues --  -19.21596 -14.45140  -1.19195  -0.73525  -0.54677
 Alpha  occ. eigenvalues --   -0.47780  -0.46619  -0.25587
 Alpha virt. eigenvalues --   -0.11931   0.00853   0.14022   0.24320   0.24422
 Alpha virt. eigenvalues --    0.26726   0.32975   0.36258   0.38589   0.38925
 Alpha virt. eigenvalues --    0.44368   0.70495   0.72840   0.81852   1.06160
 Alpha virt. eigenvalues --    1.18177   1.18336   1.30771   1.39555   1.51540
 Alpha virt. eigenvalues --    1.60585   1.64950   1.66234   1.75255   1.89250
 Alpha virt. eigenvalues --    1.96496   1.99936   2.04238   2.39809   2.48746
 Alpha virt. eigenvalues --    2.50629   2.73603   2.92597   3.27117   3.33425
 Alpha virt. eigenvalues --    3.37823   3.68567   3.69734   3.70032   3.92622
 Alpha virt. eigenvalues --    3.94400   4.01495   4.05812   4.17161   4.35281
 Alpha virt. eigenvalues --    4.42197   4.43401   4.60195   4.65754   4.78715
 Alpha virt. eigenvalues --    5.06949   5.16571   5.26183   5.37405   5.49722
 Alpha virt. eigenvalues --    5.80712   5.84693   5.91347   6.00621   6.03747
 Alpha virt. eigenvalues --    6.22763   6.34502   6.39676   6.54651   7.05264
 Alpha virt. eigenvalues --    7.37418
          Condensed to atoms (all electrons):
               1          2          3
     1  N    6.493804   0.204720   0.235618
     2  H    0.204720   0.759055  -0.080974
     3  O    0.235618  -0.080974   8.028414
 Mulliken charges:
               1
     1  N    0.065859
     2  H    0.117200
     3  O   -0.183058
 Sum of Mulliken charges =  -0.00000
 Mulliken charges with hydrogens summed into heavy atoms:
               1
     1  N    0.183058
     3  O   -0.183058
 APT charges:
               1
     1  N    0.264285
     2  H    0.030942
     3  O   -0.295227
 Sum of APT charges =  -0.00000
 APT charges with hydrogens summed into heavy atoms:
               1
     1  N    0.295227
     3  O   -0.295227
 Electronic spatial extent (au):  <R**2>=             50.9136
 Charge=             -0.0000 electrons
 Dipole moment (field-independent basis, Debye):
    X=             -1.4475    Y=              0.9371    Z=              0.0000  Tot=              1.7244
 Quadrupole moment (field-independent basis, Debye-Ang):
   XX=            -11.2065   YY=            -12.0616   ZZ=            -10.6008
   XY=             -1.4404   XZ=              0.0000   YZ=              0.0000
 Traceless Quadrupole moment (field-independent basis, Debye-Ang):
   XX=              0.0832   YY=             -0.7719   ZZ=              0.6888
   XY=             -1.4404   XZ=              0.0000   YZ=              0.0000
 Octapole moment (field-independent basis, Debye-Ang**2):
  XXX=             -1.5323  YYY=             -1.2544  ZZZ=              0.0000  XYY=             -1.6406
  XXY=              0.1023  XXZ=              0.0000  XZZ=             -0.2049  YZZ=             -0.5113
  YYZ=              0.0000  XYZ=             -0.0000
 Hexadecapole moment (field-independent basis, Debye-Ang**3):
 XXXX=            -13.8432 YYYY=            -37.2316 ZZZZ=             -8.6118 XXXY=              0.6035
 XXXZ=              0.0000 YYYX=             -0.1349 YYYZ=              0.0000 ZZZX=              0.0000
 ZZZY=              0.0000 XXYY=             -8.8982 XXZZ=             -3.9030 YYZZ=             -7.3859
 XXYZ=              0.0000 YYXZ=              0.0000 ZZXY=              0.3853
 N-N= 3.053054940332D+01 E-N=-3.684253204536D+02  KE= 1.301492296210D+02
 Symmetry A'   KE= 1.261517732308D+02
 Symmetry A"   KE= 3.997456390243D+00
  Exact polarizability:  12.815  -2.861  17.020   0.000  -0.000   8.321
 Approx polarizability:  15.862  -4.285  28.366  -0.000  -0.000  11.335
 Calling FoFJK, ICntrl=    100127 FMM=F ISym2X=1 I1Cent= 0 IOpClX= 0 NMat=1 NMatS=1 NMatT=0.
 Full mass-weighted force constant matrix:
 Low frequencies ---  -18.0433   -7.7109   -0.0009    0.0010    0.0019   23.1244
 Low frequencies --- 1564.8536 1665.5885 2859.5342
 Diagonal vibrational polarizability:
        0.5804587       0.8371910       0.0000000
 Harmonic frequencies (cm**-1), IR intensities (KM/Mole), Raman scattering
 activities (A**4/AMU), depolarization ratios for plane and unpolarized
 incident light, reduced masses (AMU), force constants (mDyne/A),
 and normal coordinates:
                      1                      2                      3
                     A'                     A'                     A'
 Frequencies --   1564.8536              1665.5885              2859.5342
 Red. masses --      1.2600                 7.4712                 1.0772
 Frc consts  --      1.8179                12.2116                 5.1897
 IR Inten    --      6.5530                86.8993               152.7326
  Atom  AN      X      Y      Z        X      Y      Z        X      Y      Z
     1   7    -0.08  -0.10   0.00     0.06  -0.49   0.00    -0.07   0.00   0.00
     2   1     0.21   0.97  -0.00    -0.24  -0.69   0.00     0.96  -0.29  -0.00
     3   8     0.05   0.02  -0.00    -0.04   0.47  -0.00     0.00   0.02  -0.00

 -------------------
 - Thermochemistry -
 -------------------
 Temperature   298.150 Kelvin.  Pressure   1.00000 Atm.
 Atom     1 has atomic number  7 and mass  14.00307
 Atom     2 has atomic number  1 and mass   1.00783
 Atom     3 has atomic number  8 and mass  15.99491
 Molecular mass:    31.00581 amu.
 Principal axes and moments of inertia in atomic units:
                           1         2         3
     Eigenvalues --     3.20864  41.91665  45.12530
           X           -0.08902   0.99603   0.00000
           Y            0.99603   0.08902   0.00000
           Z           -0.00000  -0.00000   1.00000
 This molecule is an asymmetric top.
 Rotational symmetry number  1.
 Rotational temperatures (Kelvin)     26.99394     2.06634     1.91941
 Rotational constants (GHZ):         562.46233    43.05547    39.99400
 Zero-point vibrational energy      36426.1 (Joules/Mol)
                                    8.70606 (Kcal/Mol)
 Vibrational temperatures:   2251.48  2396.41  4114.23
          (Kelvin)
 
 Zero-point correction=                           0.013874 (Hartree/Particle)
 Thermal correction to Energy=                    0.016713
 Thermal correction to Enthalpy=                  0.017657
 Thermal correction to Gibbs Free Energy=        -0.007383
 Sum of electronic and zero-point Energies=           -130.515650
 Sum of electronic and thermal Energies=              -130.512812
 Sum of electronic and thermal Enthalpies=            -130.511867
 Sum of electronic and thermal Free Energies=         -130.536907
 
                     E (Thermal)             CV                S
                      KCal/Mol        Cal/Mol-Kelvin    Cal/Mol-Kelvin
 Total                   10.487              6.063             52.700
 Electronic               0.000              0.000              0.000
 Translational            0.889              2.981             36.227
 Rotational               0.889              2.981             16.458
 Vibrational              8.710              0.101              0.015
                       Q            Log10(Q)             Ln(Q)
 Total Bot       0.248778D+04          3.395812          7.819146
 Total V=0       0.598959D+10          9.777397         22.513289
 Vib (Bot)       0.415703D-06         -6.381216        -14.693294
 Vib (V=0)       0.100085D+01          0.000369          0.000850
 Electronic      0.100000D+01          0.000000          0.000000
 Translational   0.678607D+07          6.831619         15.730383
 Rotational      0.881880D+03          2.945410          6.782056
 ***** Axes restored to original set *****
 -------------------------------------------------------------------
 Center     Atomic                   Forces (Hartrees/Bohr)
 Number     Number              X              Y              Z
 -------------------------------------------------------------------
      1        7           0.000112094    0.000000000    0.000036259
      2        1          -0.000087499   -0.000000000    0.000040994
      3        8          -0.000024595   -0.000000000   -0.000077253
 -------------------------------------------------------------------
 Cartesian Forces:  Max     0.000112094 RMS     0.000057532
 FormGI is forming the generalized inverse of G from B-inverse, IUseBI=4.

 GradGradGradGradGradGradGradGradGradGradGradGradGradGradGradGradGradGrad
 Berny optimization.
 Internal  Forces:  Max     0.000182252 RMS     0.000107062
 Search for a local minimum.
 Step number   1 out of a maximum of    2
 All quantities printed in internal units (Hartrees-Bohrs-Radians)
 Second derivative matrix not updated -- analytic derivatives used.
 The second derivative matrix:
                          R1        R2        A1
           R1           0.29084
           R2           0.06710   0.82064
           A1          -0.00444   0.09666   0.32329
 ITU=  0
     Eigenvalues ---    0.27427   0.31410   0.84640
 Angle between quadratic step and forces=   9.80 degrees.
 Linear search not attempted -- first point.
 Iteration  1 RMS(Cart)=  0.00039519 RMS(Int)=  0.00000008
 Iteration  2 RMS(Cart)=  0.00000006 RMS(Int)=  0.00000000
 ClnCor:  largest displacement from symmetrization is 1.24D-15 for atom     2.
 Variable       Old X    -DE/DX   Delta X   Delta X   Delta X     New X
                                 (Linear)    (Quad)   (Total)
    R1        2.00590   0.00003   0.00000   0.00014   0.00014   2.00604
    R2        2.26366   0.00001   0.00000  -0.00007  -0.00007   2.26359
    A1        1.89911   0.00018   0.00000   0.00059   0.00059   1.89970
         Item               Value     Threshold  Converged?
 Maximum Force            0.000182     0.000450     YES
 RMS     Force            0.000107     0.000300     YES
 Maximum Displacement     0.000382     0.001800     YES
 RMS     Displacement     0.000395     0.001200     YES
 Predicted change in Energy=-5.542826D-08
 Optimization completed.
    -- Stationary point found.
                           ----------------------------
                           !   Optimized Parameters   !
                           ! (Angstroms and Degrees)  !
 --------------------------                            --------------------------
 ! Name  Definition              Value          Derivative Info.                !
 --------------------------------------------------------------------------------
 ! R1    R(1,2)                  1.0615         -DE/DX =    0.0                 !
 ! R2    R(1,3)                  1.1979         -DE/DX =    0.0                 !
 ! A1    A(2,1,3)              108.8109         -DE/DX =    0.0002              !
 --------------------------------------------------------------------------------
 GradGradGradGradGradGradGradGradGradGradGradGradGradGradGradGradGradGrad


 ----------------------------------------------------------------------

 Electric dipole moment (input orientation):
 (Debye = 10**-18 statcoulomb cm , SI units = C m)
                  (au)            (Debye)         (10**-30 SI)
   Tot        0.678416D+00      0.172436D+01      0.575185D+01
   x         -0.106557D+00     -0.270841D+00     -0.903430D+00
   y          0.000000D+00      0.000000D+00      0.000000D+00
   z          0.669995D+00      0.170296D+01      0.568046D+01

 Dipole polarizability, Alpha (input orientation).
 (esu units = cm**3 , SI units = C**2 m**2 J**-1)
 Alpha(0;0):
               (au)            (10**-24 esu)      (10**-40 SI)
   iso        0.127186D+02      0.188470D+01      0.209701D+01
   aniso      0.901839D+01      0.133639D+01      0.148693D+01
   xx         0.142119D+02      0.210599D+01      0.234323D+01
   yx         0.000000D+00      0.000000D+00      0.000000D+00
   yy         0.832144D+01      0.123311D+01      0.137202D+01
   zx        -0.348021D+01     -0.515714D+00     -0.573809D+00
   zy         0.000000D+00      0.000000D+00      0.000000D+00
   zz         0.156224D+02      0.231500D+01      0.257579D+01

 ----------------------------------------------------------------------

 Dipole orientation:
     7         -0.06138372         -0.00000000         -0.13205702
     1          0.42755809         -0.00000000          1.81333746
     8          1.83881987          0.00000000         -1.36224984

 Electric dipole moment (dipole orientation):
 (Debye = 10**-18 statcoulomb cm , SI units = C m)
                  (au)            (Debye)         (10**-30 SI)
   Tot        0.678416D+00      0.172436D+01      0.575185D+01
   x          0.000000D+00      0.000000D+00      0.000000D+00
   y          0.000000D+00      0.000000D+00      0.000000D+00
   z          0.678416D+00      0.172436D+01      0.575185D+01

 Dipole polarizability, Alpha (dipole orientation).
 (esu units = cm**3 , SI units = C**2 m**2 J**-1)
 Alpha(0;0):
               (au)            (10**-24 esu)      (10**-40 SI)
   iso        0.127186D+02      0.188470D+01      0.209701D+01
   aniso      0.901839D+01      0.133639D+01      0.148693D+01
   xx         0.131671D+02      0.195116D+01      0.217095D+01
   yx         0.000000D+00      0.000000D+00      0.000000D+00
   yy         0.832144D+01      0.123311D+01      0.137202D+01
   zx        -0.308971D+01     -0.457847D+00     -0.509424D+00
   zy         0.000000D+00      0.000000D+00      0.000000D+00
   zz         0.166673D+02      0.246984D+01      0.274807D+01

 ----------------------------------------------------------------------
 1\1\GINC-GAMBA\Freq\RB3LYP\Gen\H1N1O1\IRIKURA\02-Feb-2022\0\\#N Geom=A
 llCheck Guess=TCheck SCRF=Check GenChk RB3LYP/ChkBas Freq\\HNO, B3LYP/
 pcseg-2\\0,1\N,-0.0211035478,0.,-0.0741161927\H,0.0727271571,0.,0.9832
 036347\O,1.0742094155,0.,-0.559087442\\Version=ES64L-G16RevB.01\State=
 1-A'\HF=-130.5295244\RMSD=4.527e-10\RMSF=5.753e-05\ZeroPoint=0.013874\
 Thermal=0.0167128\Dipole=-0.1065572,0.,0.6699953\DipoleDeriv=0.3192523
 ,0.,-0.3824184,0.,-0.222751,0.,-0.0974255,0.,0.6963545,0.1620835,0.,-0
 .0979993,0.,0.2999244,0.,0.0563811,0.,-0.369182,-0.4813359,0.,0.480417
 7,0.,-0.0771734,0.,0.0410444,0.,-0.3271724\Polar=14.2119442,0.,8.32144
 45,-3.4802097,0.,15.6224033\Quadrupole=-1.2626276,0.5121003,0.7505273,
 0.,-0.4845076,0.\PG=CS [SG(H1N1O1)]\NImag=0\\0.72782099,0.,0.00009374,
 -0.14320529,0.,0.44220947,-0.07267803,0.,-0.10270737,0.08235887,0.,-0.
 00004342,0.,0.,0.00000075,-0.08392199,0.,-0.25606257,0.02066834,0.,0.2
 8881413,-0.65514296,0.,0.24591266,-0.00968084,0.,0.06325364,0.66482380
 ,0.,-0.00005032,0.,0.,0.00004267,0.,0.,0.00000765,0.22712727,0.,-0.186
 14690,0.08203902,0.,-0.03275157,-0.30916630,0.,0.21889847\\-0.00011209
 ,0.,-0.00003626,0.00008750,0.,-0.00004099,0.00002459,0.,0.00007725\\\@


            THE IRISH PIG
 'TWAS AN EVENING IN NOVEMBER,
 AS I VERY WELL REMEMBER
 I WAS STROLLING DOWN THE STREET IN DRUNKEN PRIDE,
 BUT MY KNEES WERE ALL A'FLUTTER
 SO I LANDED IN THE GUTTER,
 AND A PIG CAME UP AND LAY DOWN BY MY SIDE.

 YES, I LAY THERE IN THE GUTTER
 THINKING THOUGHTS I COULD NOT UTTER
 WHEN A COLLEEN PASSING BY DID SOFTLY SAY,
 'YE CAN TELL A MAN THAT BOOZES
 BY THE COMPANY THAT HE CHOOSES.' -
 AT THAT, THE PIG GOT UP AND WALKED AWAY!
     -- THE ECONOMIST, AUGUST 23, 1986
 Job cpu time:       0 days  0 hours  0 minutes 23.1 seconds.
 Elapsed time:       0 days  0 hours  0 minutes 23.0 seconds.
 File lengths (MBytes):  RWF=      6 Int=      0 D2E=      0 Chk=      2 Scr=      1
 Normal termination of Gaussian 16 at Wed Feb  2 17:57:23 2022.
