 Entering Gaussian System, Link 0=g16
 AtFile(1): pcseg2.gbs
            -H     0
            S   4   1.00
                  0.754732D+02           0.427821D-02
                  0.113575D+02           0.328672D-01
                  0.260081D+01           0.159578D+00
                  0.735503D+00           0.500000D+00
            S   1   1.00
                  0.231761D+00           1.0000000
            S   1   1.00
                  0.741675D-01           1.0000000
            P   1   1.00
                  0.160000D+01           1.0000000
            P   1   1.00
                  0.450000D+00           1.0000000
            D   1   1.00
                  0.125000D+01           1.0000000
            ****
            -C     0
            S   7   1.00
                  0.731999D+04           0.695369D-03
                  0.109818D+04           0.537138D-02
                  0.250014D+03           0.274734D-01
                  0.707586D+02           0.105078D+00
                  0.228595D+02           0.291262D+00
                  0.803936D+01           0.500000D+00
                  0.289309D+01           0.362224D+00
            S   2   1.00
                  0.521640D+01          -0.957844D-01
                  0.556124D+00           0.500000D+00
            S   1   1.00
                  0.228813D+00           1.0000000
            S   1   1.00
                  0.936338D-01           1.0000000
            P   4   1.00
                  0.339855D+02           0.818395D-02
                  0.772957D+01           0.586921D-01
                  0.224954D+01           0.222514D+00
                  0.767681D+00           0.500000D+00
            P   1   1.00
                  0.263283D+00           1.0000000
            P   1   1.00
                  0.848744D-01           1.0000000
            D   1   1.00
                  0.140000D+01           1.0000000
            D   1   1.00
                  0.450000D+00           1.0000000
            F   1   1.00
                  0.950000D+00           1.0000000
            ****
            -O     0
            S   7   1.00
                  0.135887D+05           0.665492D-03
                  0.203847D+04           0.514222D-02
                  0.464041D+03           0.263472D-01
                  0.131339D+03           0.101500D+00
                  0.425340D+02           0.285877D+00
                  0.150429D+02           0.500000D+00
                  0.546616D+01           0.368211D+00
            S   2   1.00
                  0.100915D+02          -0.100084D+00
                  0.110429D+01           0.500000D+00
            S   1   1.00
                  0.448082D+00           1.0000000
            S   1   1.00
                  0.175325D+00           1.0000000
            P   4   1.00
                  0.608220D+02           0.908253D-02
                  0.140332D+02           0.645878D-01
                  0.418244D+01           0.241502D+00
                  0.142490D+01           0.500000D+00
            P   1   1.00
                  0.478741D+00           1.0000000
            P   1   1.00
                  0.146257D+00           1.0000000
            D   1   1.00
                  0.220000D+01           1.0000000
            D   1   1.00
                  0.650000D+00           1.0000000
            F   1   1.00
                  0.110000D+01           1.0000000
            ****
            -N     0
            S   7   1.00
                  0.101643D+05           0.682757D-03
                  0.152481D+04           0.527488D-02
                  0.347119D+03           0.270037D-01
                  0.982389D+02           0.103673D+00
                  0.317799D+02           0.289575D+00
                  0.112240D+02           0.500000D+00
                  0.406611D+01           0.364621D+00
            S   2   1.00
                  0.747898D+01          -0.975681D-01
                  0.805040D+00           0.500000D+00
            S   1   1.00
                  0.324626D+00           1.0000000
            S   1   1.00
                  0.128132D+00           1.0000000
            P   4   1.00
                  0.482704D+02           0.829547D-02
                  0.110815D+02           0.596223D-01
                  0.326643D+01           0.227889D+00
                  0.111680D+01           0.500000D+00
            P   1   1.00
                  0.382049D+00           1.0000000
            P   1   1.00
                  0.121222D+00           1.0000000
            D   1   1.00
                  0.180000D+01           1.0000000
            D   1   1.00
                  0.550000D+00           1.0000000
            F   1   1.00
                  0.102000D+01           1.0000000
            ****
            -F     0
            S   7   1.00
                  0.174507D+05           0.655972D-03
                  0.261768D+04           0.506944D-02
                  0.595857D+03           0.259899D-01
                  0.168651D+03           0.100353D+00
                  0.546654D+02           0.284095D+00
                  0.193717D+02           0.500000D+00
                  0.706202D+01           0.370721D+00
            S   2   1.00
                  0.131197D+02          -0.101997D+00
                  0.145046D+01           0.500000D+00
            S   1   1.00
                  0.588255D+00           1.0000000
            S   1   1.00
                  0.227960D+00           1.0000000
            P   4   1.00
                  0.779407D+02           0.931135D-02
                  0.180425D+02           0.663964D-01
                  0.542342D+01           0.246386D+00
                  0.184876D+01           0.500000D+00
            P   1   1.00
                  0.617455D+00           1.0000000
            P   1   1.00
                  0.185496D+00           1.0000000
            D   1   1.00
                  0.280000D+01           1.0000000
            D   1   1.00
                  0.800000D+00           1.0000000
            F   1   1.00
                  0.120000D+01           1.0000000
            ****
            -Cl     0
            S   8   1.00
                  0.154272D+06           0.222473D-03
                  0.231232D+05           0.172590D-02
                  0.526257D+04           0.899286D-02
                  0.148995D+04           0.367724D-01
                  0.485417D+03           0.121446D+00
                  0.174634D+03           0.304148D+00
                  0.672393D+02           0.500000D+00
                  0.265780D+02           0.360252D+00
            S   3   1.00
                  0.131826D+03          -0.531330D-01
                  0.400703D+02          -0.233346D+00
                  0.789448D+01           0.500000D+00
            S   2   1.00
                  0.427711D+01           0.500000D+00
                  0.196233D+01           0.370517D+00
            S   1   1.00
                  0.520793D+00           1.0000000
            S   1   1.00
                  0.181633D+00           1.0000000
            P   7   1.00
                  0.124440D+04           0.988206D-03
                  0.295109D+03           0.829674D-02
                  0.947224D+02           0.430906D-01
                  0.352588D+02           0.148443D+00
                  0.144211D+02           0.344744D+00
                  0.610371D+01           0.500000D+00
                  0.258886D+01           0.348278D+00
            P   2   1.00
                  0.109447D+02          -0.196768D-01
                  0.104413D+01           0.500000D+00
            P   1   1.00
                  0.376184D+00           1.0000000
            P   1   1.00
                  0.120613D+00           1.0000000
            D   1   1.00
                  0.231000D+01           1.0000000
            D   1   1.00
                  0.520000D+00           1.0000000
            F   1   1.00
                  0.720000D+00           1.0000000
            ****
            -S     0
            S   8   1.00
                  0.134700D+06           0.226231D-03
                  0.201904D+05           0.175488D-02
                  0.459528D+04           0.914190D-02
                  0.130109D+04           0.373551D-01
                  0.423902D+03           0.123121D+00
                  0.152485D+03           0.306801D+00
                  0.586925D+02           0.500000D+00
                  0.231461D+02           0.354358D+00
            S   3   1.00
                  0.116327D+03          -0.491772D-01
                  0.352841D+02          -0.215962D+00
                  0.677831D+01           0.500000D+00
            S   2   1.00
                  0.360404D+01           0.500000D+00
                  0.164871D+01           0.366278D+00
            S   1   1.00
                  0.421821D+00           1.0000000
            S   1   1.00
                  0.147554D+00           1.0000000
            P   7   1.00
                  0.104863D+04           0.105273D-02
                  0.248717D+03           0.879338D-02
                  0.797887D+02           0.453358D-01
                  0.296023D+02           0.154476D+00
                  0.120627D+02           0.352366D+00
                  0.507628D+01           0.500000D+00
                  0.213375D+01           0.346429D+00
            P   2   1.00
                  0.928958D+01          -0.185932D-01
                  0.837819D+00           0.500000D+00
            P   1   1.00
                  0.301495D+00           1.0000000
            P   1   1.00
                  0.974740D-01           1.0000000
            D   1   1.00
                  0.210000D+01           1.0000000
            D   1   1.00
                  0.480000D+00           1.0000000
            F   1   1.00
                  0.660000D+00           1.0000000
            ****
            -Br     0
            S    10   1.00
                  0.233625D+07           0.532336D-04
                  0.349961D+06           0.413715D-03
                  0.796444D+05           0.217123D-02
                  0.225555D+05           0.910109D-02
                  0.735546D+04           0.323789D-01
                  0.265352D+04           0.988755D-01
                  0.103517D+04           0.248138D+00
                  0.422205D+03           0.474328D+00
                  0.180035D+03           0.500000D+00
                  0.793308D+02           0.187769D+00
            S    4   1.00
                  0.620834D+03          -0.226511D-01
                  0.190829D+03          -0.109497D+00
                  0.312505D+02           0.500000D+00
                  0.135270D+02           0.492812D+00
            S    2   1.00
                  0.216097D+02          -0.165418D+00
                  0.372566D+01           0.500000D+00
            S    1   1.00
                  0.169770D+01           1.0000000
            S    1   1.00
                  0.489332D+00           1.0000000
            S    1   1.00
                  0.175712D+00           1.0000000
            P    8   1.00
                  0.960829D+04           0.478974D-03
                  0.227618D+04           0.417853D-02
                  0.736723D+03           0.229315D-01
                  0.281579D+03           0.892653D-01
                  0.118395D+03           0.255288D+00
                  0.527481D+02           0.479074D+00
                  0.245098D+02           0.500000D+00
                  0.112009D+02           0.200944D+00
            P    4   1.00
                  0.587849D+02          -0.189674D-01
                  0.918962D+01           0.264104D+00
                  0.413895D+01           0.500000D+00
                  0.184225D+01           0.319316D+00
            P    1   1.00
                  0.713862D+00           1.0000000
            P    1   1.00
                  0.274232D+00           1.0000000
            P    1   1.00
                  0.944411D-01           1.0000000
            D    7   1.00
                  0.398470D+03           0.204066D-02
                  0.118967D+03           0.175171D-01
                  0.450197D+02           0.829708D-01
                  0.190320D+02           0.236284D+00
                  0.855686D+01           0.428468D+00
                  0.382950D+01           0.500000D+00
                  0.166291D+01           0.349360D+00
            D    1   1.00
                  0.672953D+00           1.0000000
            D    1   1.00
                  0.252000D+00           1.0000000
            F    1   1.00
                  0.530000D+00           1.0000000
            ****
            
 Initial command:
 /usr/local/apps/g16_b01_avx/g16/l1.exe "/wrk/irikura/Gau-9941.inp" -scrdir="/wrk/irikura/"
 Entering Link 1 = /usr/local/apps/g16_b01_avx/g16/l1.exe PID=      9943.
  
 Copyright (c) 1988-2017, Gaussian, Inc.  All Rights Reserved.
  
 This is part of the Gaussian(R) 16 program.  It is based on
 the Gaussian(R) 09 system (copyright 2009, Gaussian, Inc.),
 the Gaussian(R) 03 system (copyright 2003, Gaussian, Inc.),
 the Gaussian(R) 98 system (copyright 1998, Gaussian, Inc.),
 the Gaussian(R) 94 system (copyright 1995, Gaussian, Inc.),
 the Gaussian 92(TM) system (copyright 1992, Gaussian, Inc.),
 the Gaussian 90(TM) system (copyright 1990, Gaussian, Inc.),
 the Gaussian 88(TM) system (copyright 1988, Gaussian, Inc.),
 the Gaussian 86(TM) system (copyright 1986, Carnegie Mellon
 University), and the Gaussian 82(TM) system (copyright 1983,
 Carnegie Mellon University). Gaussian is a federally registered
 trademark of Gaussian, Inc.
  
 This software contains proprietary and confidential information,
 including trade secrets, belonging to Gaussian, Inc.
  
 This software is provided under written license and may be
 used, copied, transmitted, or stored only in accord with that
 written license.
  
 The following legend is applicable only to US Government
 contracts under FAR:
  
                    RESTRICTED RIGHTS LEGEND
  
 Use, reproduction and disclosure by the US Government is
 subject to restrictions as set forth in subparagraphs (a)
 and (c) of the Commercial Computer Software - Restricted
 Rights clause in FAR 52.227-19.
  
 Gaussian, Inc.
 340 Quinnipiac St., Bldg. 40, Wallingford CT 06492
  
  
 ---------------------------------------------------------------
 Warning -- This program may not be used in any manner that
 competes with the business of Gaussian, Inc. or will provide
 assistance to any competitor of Gaussian, Inc.  The licensee
 of this program is prohibited from giving any competitor of
 Gaussian, Inc. access to this program.  By using this program,
 the user acknowledges that Gaussian, Inc. is engaged in the
 business of creating and licensing software in the field of
 computational chemistry and represents and warrants to the
 licensee that it is not a competitor of Gaussian, Inc. and that
 it will not use this program in any manner prohibited above.
 ---------------------------------------------------------------
  

 Cite this work as:
 Gaussian 16, Revision B.01,
 M. J. Frisch, G. W. Trucks, H. B. Schlegel, G. E. Scuseria, 
 M. A. Robb, J. R. Cheeseman, G. Scalmani, V. Barone, 
 G. A. Petersson, H. Nakatsuji, X. Li, M. Caricato, A. V. Marenich, 
 J. Bloino, B. G. Janesko, R. Gomperts, B. Mennucci, H. P. Hratchian, 
 J. V. Ortiz, A. F. Izmaylov, J. L. Sonnenberg, D. Williams-Young, 
 F. Ding, F. Lipparini, F. Egidi, J. Goings, B. Peng, A. Petrone, 
 T. Henderson, D. Ranasinghe, V. G. Zakrzewski, J. Gao, N. Rega, 
 G. Zheng, W. Liang, M. Hada, M. Ehara, K. Toyota, R. Fukuda, 
 J. Hasegawa, M. Ishida, T. Nakajima, Y. Honda, O. Kitao, H. Nakai, 
 T. Vreven, K. Throssell, J. A. Montgomery, Jr., J. E. Peralta, 
 F. Ogliaro, M. J. Bearpark, J. J. Heyd, E. N. Brothers, K. N. Kudin, 
 V. N. Staroverov, T. A. Keith, R. Kobayashi, J. Normand, 
 K. Raghavachari, A. P. Rendell, J. C. Burant, S. S. Iyengar, 
 J. Tomasi, M. Cossi, J. M. Millam, M. Klene, C. Adamo, R. Cammi, 
 J. W. Ochterski, R. L. Martin, K. Morokuma, O. Farkas, 
 J. B. Foresman, and D. J. Fox, Gaussian, Inc., Wallingford CT, 2016.
 
 ******************************************
 Gaussian 16:  ES64L-G16RevB.01 20-Dec-2017
                14-Jun-2022 
 ******************************************
 %mem=500mw
 --------------------
 # b3lyp/gen opt freq
 --------------------
 1/18=20,19=15,26=3,38=1/1,3;
 2/9=110,12=2,17=6,18=5,40=1/2;
 3/5=7,11=2,25=1,30=1,71=1,74=-5/1,2,3;
 4//1;
 5/5=2,38=5/2;
 6/7=2,8=2,9=2,10=2,28=1/1;
 7//1,2,3,16;
 1/18=20,19=15,26=3/3(2);
 2/9=110/2;
 99//99;
 2/9=110/2;
 3/5=7,6=1,11=2,25=1,30=1,71=1,74=-5,82=7/1,2,3;
 4/5=5,16=3,69=1/1;
 5/5=2,38=5/2;
 7//1,2,3,16;
 1/18=20,19=15,26=3/3(-5);
 2/9=110/2;
 6/7=2,8=2,9=2,10=2,19=2,28=1/1;
 99/9=1/99;
 ------------------
 HO2, B3LYP/pcseg-2
 ------------------
 Symbolic Z-matrix:
 Charge =  0 Multiplicity = 2
 O
 H                    1    r
 O                    1    ro       2    a
       Variables:
  r                     1.                       
  ro                    1.3                      
  a                   105.                       
 

 GradGradGradGradGradGradGradGradGradGradGradGradGradGradGradGradGradGrad
 Berny optimization.
 Initialization pass.
                           ----------------------------
                           !    Initial Parameters    !
                           ! (Angstroms and Degrees)  !
 --------------------------                            --------------------------
 ! Name  Definition              Value          Derivative Info.                !
 --------------------------------------------------------------------------------
 ! R1    R(1,2)                  1.0            estimate D2E/DX2                !
 ! R2    R(1,3)                  1.3            estimate D2E/DX2                !
 ! A1    A(2,1,3)              105.0            estimate D2E/DX2                !
 --------------------------------------------------------------------------------
 Trust Radius=3.00D-01 FncErr=1.00D-07 GrdErr=1.00D-06 EigMax=2.50D+02 EigMin=1.00D-04
 Number of steps in this run=     20 maximum allowed number of steps=    100.
 GradGradGradGradGradGradGradGradGradGradGradGradGradGradGradGradGradGrad

                          Input orientation:                          
 ---------------------------------------------------------------------
 Center     Atomic      Atomic             Coordinates (Angstroms)
 Number     Number       Type             X           Y           Z
 ---------------------------------------------------------------------
      1          8           0        0.000000    0.000000    0.000000
      2          1           0        0.000000    0.000000    1.000000
      3          8           0        1.255704    0.000000   -0.336465
 ---------------------------------------------------------------------
                    Distance matrix (angstroms):
                    1          2          3
     1  O    0.000000
     2  H    1.000000   0.000000
     3  O    1.300000   1.833829   0.000000
 Stoichiometry    HO2(2)
 Framework group  CS[SG(HO2)]
 Deg. of freedom     3
 Full point group                 CS      NOp   2
 Largest Abelian subgroup         CS      NOp   2
 Largest concise Abelian subgroup C1      NOp   1
                         Standard orientation:                         
 ---------------------------------------------------------------------
 Center     Atomic      Atomic             Coordinates (Angstroms)
 Number     Number       Type             X           Y           Z
 ---------------------------------------------------------------------
      1          8           0        0.056819   -0.596540    0.000000
      2          1           0       -0.909107   -0.855359    0.000000
      3          8           0        0.056819    0.703460   -0.000000
 ---------------------------------------------------------------------
 Rotational constants (GHZ):         589.7325648          35.1511146          33.1737852
 General basis read from cards:  (5D, 7F)
 There are    59 symmetry adapted cartesian basis functions of A'  symmetry.
 There are    26 symmetry adapted cartesian basis functions of A"  symmetry.
 There are    50 symmetry adapted basis functions of A'  symmetry.
 There are    24 symmetry adapted basis functions of A"  symmetry.
    74 basis functions,   120 primitive gaussians,    85 cartesian basis functions
     9 alpha electrons        8 beta electrons
       nuclear repulsion energy        32.5937313771 Hartrees.
 NAtoms=    3 NActive=    3 NUniq=    3 SFac= 1.00D+00 NAtFMM=   60 NAOKFM=F Big=F
 Integral buffers will be    131072 words long.
 Raffenetti 2 integral format.
 Two-electron integral symmetry is turned on.
 One-electron integrals computed using PRISM.
 NBasis=    74 RedAO= T EigKep=  1.86D-03  NBF=    50    24
 NBsUse=    74 1.00D-06 EigRej= -1.00D+00 NBFU=    50    24
 ExpMin= 7.42D-02 ExpMax= 1.36D+04 ExpMxC= 4.64D+02 IAcc=3 IRadAn=         5 AccDes= 0.00D+00
 Harris functional with IExCor=  402 and IRadAn=       5 diagonalized for initial guess.
 HarFok:  IExCor=  402 AccDes= 0.00D+00 IRadAn=         5 IDoV= 1 UseB2=F ITyADJ=14
 ICtDFT=  3500011 ScaDFX=  1.000000  1.000000  1.000000  1.000000
 FoFCou: FMM=F IPFlag=           0 FMFlag=      100000 FMFlg1=           0
         NFxFlg=           0 DoJE=T BraDBF=F KetDBF=T FulRan=T
         wScrn=  0.000000 ICntrl=       500 IOpCl=  0 I1Cent=   200000004 NGrid=           0
         NMat0=    1 NMatS0=      1 NMatT0=    0 NMatD0=    1 NMtDS0=    0 NMtDT0=    0
 Petite list used in FoFCou.
 Initial guess orbital symmetries:
 Alpha Orbitals:
       Occupied  (A') (A') (A') (A') (A') (A') (A") (A') (A")
       Virtual   (A') (A') (A') (A') (A") (A') (A') (A') (A") (A')
                 (A') (A") (A') (A') (A") (A') (A") (A') (A') (A')
                 (A") (A') (A') (A") (A') (A") (A') (A") (A') (A')
                 (A') (A") (A') (A') (A") (A') (A") (A') (A') (A")
                 (A") (A') (A') (A') (A') (A") (A') (A") (A') (A")
                 (A') (A") (A") (A') (A') (A") (A") (A') (A') (A')
                 (A") (A') (A') (A') (A')
 Beta  Orbitals:
       Occupied  (A') (A') (A') (A') (A') (A') (A") (A')
       Virtual   (A") (A') (A') (A') (A') (A") (A') (A') (A') (A")
                 (A') (A') (A") (A') (A') (A") (A') (A") (A') (A')
                 (A') (A") (A') (A') (A") (A') (A") (A') (A") (A')
                 (A') (A') (A") (A') (A') (A") (A') (A") (A') (A')
                 (A") (A") (A') (A') (A') (A') (A") (A') (A") (A')
                 (A") (A') (A") (A") (A') (A') (A") (A") (A') (A')
                 (A') (A") (A') (A') (A') (A')
 The electronic state of the initial guess is 2-A".
 Initial guess <Sx>= 0.0000 <Sy>= 0.0000 <Sz>= 0.5000 <S**2>= 0.7500 S= 0.5000
 Keep R1 and R2 ints in memory in symmetry-blocked form, NReq=5897907.
 Requested convergence on RMS density matrix=1.00D-08 within 128 cycles.
 Requested convergence on MAX density matrix=1.00D-06.
 Requested convergence on             energy=1.00D-06.
 No special actions if energy rises.
 Integral accuracy reduced to 1.0D-05 until final iterations.
 Initial convergence to 1.0D-05 achieved.  Increase integral accuracy.
 SCF Done:  E(UB3LYP) =  -150.974885642     A.U. after   14 cycles
            NFock= 14  Conv=0.39D-08     -V/T= 2.0025
 <Sx>= 0.0000 <Sy>= 0.0000 <Sz>= 0.5000 <S**2>= 0.7539 S= 0.5020
 <L.S>=  0.00000000000    
 Annihilation of the first spin contaminant:
 S**2 before annihilation     0.7539,   after     0.7500

 **********************************************************************

            Population analysis using the SCF Density.

 **********************************************************************

 Orbital symmetries:
 Alpha Orbitals:
       Occupied  (A') (A') (A') (A') (A') (A") (A') (A") (A')
       Virtual   (A') (A') (A') (A") (A') (A') (A') (A") (A') (A')
                 (A') (A") (A') (A') (A") (A') (A") (A') (A') (A')
                 (A") (A') (A") (A') (A') (A") (A') (A") (A') (A')
                 (A') (A") (A') (A') (A") (A') (A") (A') (A') (A")
                 (A") (A') (A') (A') (A") (A') (A') (A") (A') (A")
                 (A') (A") (A") (A') (A') (A") (A") (A') (A') (A')
                 (A") (A') (A') (A') (A')
 Beta  Orbitals:
       Occupied  (A') (A') (A') (A') (A') (A') (A") (A')
       Virtual   (A") (A') (A') (A') (A') (A") (A') (A') (A') (A")
                 (A') (A') (A") (A') (A') (A') (A") (A") (A') (A')
                 (A') (A") (A') (A') (A") (A') (A") (A') (A') (A")
                 (A') (A') (A") (A') (A') (A") (A') (A") (A') (A')
                 (A") (A") (A') (A') (A') (A") (A') (A') (A') (A")
                 (A") (A') (A") (A') (A") (A') (A") (A") (A') (A')
                 (A') (A") (A') (A') (A') (A')
 The electronic state is 2-A".
 Alpha  occ. eigenvalues --  -19.26296 -19.21446  -1.22390  -0.87454  -0.57816
 Alpha  occ. eigenvalues --   -0.51505  -0.49826  -0.31009  -0.30541
 Alpha virt. eigenvalues --   -0.01471   0.09296   0.24166   0.29231   0.29441
 Alpha virt. eigenvalues --    0.31852   0.35687   0.38663   0.39118   0.48432
 Alpha virt. eigenvalues --    0.71016   0.75093   0.81058   1.10033   1.25677
 Alpha virt. eigenvalues --    1.26021   1.40460   1.49921   1.61063   1.74282
 Alpha virt. eigenvalues --    1.77585   1.83150   1.96629   1.98991   2.08134
 Alpha virt. eigenvalues --    2.10004   2.34095   2.44490   2.48339   2.69287
 Alpha virt. eigenvalues --    2.92729   3.37625   3.41803   3.48681   3.56531
 Alpha virt. eigenvalues --    3.67287   3.77731   3.81883   3.92801   3.94691
 Alpha virt. eigenvalues --    4.03952   4.08701   4.22069   4.28635   4.39058
 Alpha virt. eigenvalues --    4.42213   4.63579   4.81272   4.81841   5.48541
 Alpha virt. eigenvalues --    5.51985   5.90379   5.92237   5.93464   6.00727
 Alpha virt. eigenvalues --    6.11095   6.18716   6.22284   6.28947   6.51805
 Alpha virt. eigenvalues --    6.53616   6.60922   7.06076   7.21252  11.99613
  Beta  occ. eigenvalues --  -19.25343 -19.19326  -1.19675  -0.83368  -0.56303
  Beta  occ. eigenvalues --   -0.48248  -0.43580  -0.28705
  Beta virt. eigenvalues --   -0.12731  -0.01240   0.10960   0.24364   0.29970
  Beta virt. eigenvalues --    0.30992   0.32442   0.35992   0.39478   0.41448
  Beta virt. eigenvalues --    0.48920   0.71901   0.75535   0.81132   1.10242
  Beta virt. eigenvalues --    1.27068   1.28336   1.43389   1.50790   1.63284
  Beta virt. eigenvalues --    1.75345   1.79614   1.84716   1.99951   2.00511
  Beta virt. eigenvalues --    2.09029   2.16103   2.35102   2.49474   2.49586
  Beta virt. eigenvalues --    2.70730   2.94697   3.38593   3.42651   3.50069
  Beta virt. eigenvalues --    3.57479   3.68099   3.80520   3.82602   3.95921
  Beta virt. eigenvalues --    3.98360   4.05367   4.10124   4.23343   4.30868
  Beta virt. eigenvalues --    4.39433   4.43320   4.64625   4.82091   4.82904
  Beta virt. eigenvalues --    5.52385   5.52820   5.91615   5.94836   5.98473
  Beta virt. eigenvalues --    6.07884   6.15940   6.22706   6.23187   6.31113
  Beta virt. eigenvalues --    6.52581   6.57865   6.62725   7.06791   7.22258
  Beta virt. eigenvalues --   12.00794
          Condensed to atoms (all electrons):
               1          2          3
     1  O    7.745876   0.298824   0.025036
     2  H    0.298824   0.506917  -0.048554
     3  O    0.025036  -0.048554   8.196594
          Atomic-Atomic Spin Densities.
               1          2          3
     1  O    0.426344   0.004188  -0.152696
     2  H    0.004188  -0.012863   0.000431
     3  O   -0.152696   0.000431   0.882673
 Mulliken charges and spin densities:
               1          2
     1  O   -0.069736   0.277836
     2  H    0.242813  -0.008244
     3  O   -0.173076   0.730408
 Sum of Mulliken charges =  -0.00000   1.00000
 Mulliken charges and spin densities with hydrogens summed into heavy atoms:
               1          2
     1  O    0.173076   0.269592
     3  O   -0.173076   0.730408
 Electronic spatial extent (au):  <R**2>=             54.0261
 Charge=              0.0000 electrons
 Dipole moment (field-independent basis, Debye):
    X=             -1.7636    Y=             -1.4956    Z=              0.0000  Tot=              2.3124
 Quadrupole moment (field-independent basis, Debye-Ang):
   XX=             -9.9670   YY=            -11.2217   ZZ=            -11.0569
   XY=              1.6216   XZ=             -0.0000   YZ=             -0.0000
 Traceless Quadrupole moment (field-independent basis, Debye-Ang):
   XX=              0.7816   YY=             -0.4732   ZZ=             -0.3083
   XY=              1.6216   XZ=             -0.0000   YZ=             -0.0000
 Octapole moment (field-independent basis, Debye-Ang**2):
  XXX=             -2.2749  YYY=             -1.8049  ZZZ=              0.0000  XYY=             -1.6846
  XXY=             -2.0802  XXZ=              0.0000  XZZ=             -0.2143  YZZ=              0.0183
  YYZ=              0.0000  XYZ=              0.0000
 Hexadecapole moment (field-independent basis, Debye-Ang**3):
 XXXX=             -9.9912 YYYY=            -36.7665 ZZZZ=             -8.6119 XXXY=              0.1557
 XXXZ=              0.0000 YYYX=              0.3221 YYYZ=              0.0000 ZZZX=              0.0000
 ZZZY=              0.0000 XXYY=             -7.8399 XXZZ=             -3.3815 YYZZ=             -7.9959
 XXYZ=              0.0000 YYXZ=             -0.0000 ZZXY=             -0.3342
 N-N= 3.259373137705D+01 E-N=-4.225763798604D+02  KE= 1.505969054454D+02
 Symmetry A'   KE= 1.431668319040D+02
 Symmetry A"   KE= 7.430073541368D+00
 Symmetry A'   SP=-5.788442743518D-15
 Symmetry A"   SP= 1.000000000000D+00
                          Isotropic Fermi Contact Couplings
        Atom                 a.u.       MegaHertz       Gauss      10(-4) cm-1
     1  O(17)              0.08536     -51.74200     -18.46283     -17.25927
     2  H(1)              -0.00626     -27.97265      -9.98134      -9.33067
     3  O(17)              0.17874    -108.35175     -38.66260     -36.14225
 --------------------------------------------------------
       Center         ----  Spin Dipole Couplings  ----
                      3XX-RR        3YY-RR        3ZZ-RR
 --------------------------------------------------------
     1   Atom       -0.765985     -0.809661      1.575646
     2   Atom        0.047610     -0.022815     -0.024795
     3   Atom       -1.646661     -1.679947      3.326608
 --------------------------------------------------------
                        XY            XZ            YZ
 --------------------------------------------------------
     1   Atom        0.025953      0.000000     -0.000000
     2   Atom        0.039390     -0.000000     -0.000000
     3   Atom       -0.005132     -0.000000     -0.000000
 --------------------------------------------------------


 ---------------------------------------------------------------------------------
              Anisotropic Spin Dipole Couplings in Principal Axis System
 ---------------------------------------------------------------------------------

       Atom             a.u.   MegaHertz   Gauss  10(-4) cm-1        Axes

              Baa    -0.8217    59.461    21.217    19.834 -0.4220  0.9066 -0.0000
     1 O(17)  Bbb    -0.7539    54.552    19.466    18.197  0.9066  0.4220  0.0000
              Bcc     1.5756  -114.013   -40.683   -38.031  0.0000  0.0000  1.0000
 
              Baa    -0.0404   -21.575    -7.699    -7.197 -0.4084  0.9128 -0.0000
     2 H(1)   Bbb    -0.0248   -13.230    -4.721    -4.413  0.0000  0.0000  1.0000
              Bcc     0.0652    34.805    12.419    11.610  0.9128  0.4084 -0.0000
 
              Baa    -1.6807   121.616    43.396    40.567  0.1490  0.9888 -0.0000
     3 O(17)  Bbb    -1.6459   119.095    42.496    39.726  0.9888 -0.1490 -0.0000
              Bcc     3.3266  -240.711   -85.892   -80.293  0.0000  0.0000  1.0000
 

 ---------------------------------------------------------------------------------

 Calling FoFJK, ICntrl=      2127 FMM=F ISym2X=1 I1Cent= 0 IOpClX= 1 NMat=1 NMatS=1 NMatT=0.
 ***** Axes restored to original set *****
 -------------------------------------------------------------------
 Center     Atomic                   Forces (Hartrees/Bohr)
 Number     Number              X              Y              Z
 -------------------------------------------------------------------
      1        8          -0.019086619    0.000000000    0.027932686
      2        1          -0.003614218   -0.000000000   -0.018971627
      3        8           0.022700837   -0.000000000   -0.008961060
 -------------------------------------------------------------------
 Cartesian Forces:  Max     0.027932686 RMS     0.015322996

 GradGradGradGradGradGradGradGradGradGradGradGradGradGradGradGradGradGrad
 Berny optimization.
 FormGI is forming the generalized inverse of G from B-inverse, IUseBI=4.
 Internal  Forces:  Max     0.024246648 RMS     0.018206895
 Search for a local minimum.
 Step number   1 out of a maximum of   20
 All quantities printed in internal units (Hartrees-Bohrs-Radians)
 Mixed Optimization -- RFO/linear search
 Second derivative matrix not updated -- first step.
 The second derivative matrix:
                          R1        R2        A1
           R1           0.47688
           R2           0.00000   0.67193
           A1           0.00000   0.00000   0.16000
 ITU=  0
     Eigenvalues ---    0.16000   0.47688   0.67193
 RFO step:  Lambda=-1.91229932D-03 EMin= 1.60000000D-01
 Linear search not attempted -- first point.
 Iteration  1 RMS(Cart)=  0.03506125 RMS(Int)=  0.00041920
 Iteration  2 RMS(Cart)=  0.00034278 RMS(Int)=  0.00000001
 Iteration  3 RMS(Cart)=  0.00000001 RMS(Int)=  0.00000000
 ClnCor:  largest displacement from symmetrization is 2.78D-16 for atom     2.
 Variable       Old X    -DE/DX   Delta X   Delta X   Delta X     New X
                                 (Linear)    (Quad)   (Total)
    R1        1.88973  -0.01897   0.00000  -0.03962  -0.03962   1.85010
    R2        2.45664   0.02425   0.00000   0.03598   0.03598   2.49263
    A1        1.83260   0.00683   0.00000   0.04218   0.04218   1.87478
         Item               Value     Threshold  Converged?
 Maximum Force            0.024247     0.000450     NO 
 RMS     Force            0.018207     0.000300     NO 
 Maximum Displacement     0.035053     0.001800     NO 
 RMS     Displacement     0.034947     0.001200     NO 
 Predicted change in Energy=-9.605901D-04
 GradGradGradGradGradGradGradGradGradGradGradGradGradGradGradGradGradGrad

                          Input orientation:                          
 ---------------------------------------------------------------------
 Center     Atomic      Atomic             Coordinates (Angstroms)
 Number     Number       Type             X           Y           Z
 ---------------------------------------------------------------------
      1          8           0        0.002800    0.000000    0.018549
      2          1           0       -0.015697    0.000000    0.997407
      3          8           0        1.268601   -0.000000   -0.352421
 ---------------------------------------------------------------------
                    Distance matrix (angstroms):
                    1          2          3
     1  O    0.000000
     2  H    0.979032   0.000000
     3  O    1.319041   1.863184   0.000000
 Stoichiometry    HO2(2)
 Framework group  CS[SG(HO2)]
 Deg. of freedom     3
 Full point group                 CS      NOp   2
 Largest Abelian subgroup         CS      NOp   2
 Largest concise Abelian subgroup C1      NOp   1
                         Standard orientation:                         
 ---------------------------------------------------------------------
 Center     Atomic      Atomic             Coordinates (Angstroms)
 Number     Number       Type             X           Y           Z
 ---------------------------------------------------------------------
      1          8           0        0.054950   -0.603487    0.000000
      2          1           0       -0.879196   -0.896534    0.000000
      3          8           0        0.054950    0.715554   -0.000000
 ---------------------------------------------------------------------
 Rotational constants (GHZ):         632.8202626          34.0206451          32.2849923
 Basis read from rwf:  (5D, 7F)
 There are    59 symmetry adapted cartesian basis functions of A'  symmetry.
 There are    26 symmetry adapted cartesian basis functions of A"  symmetry.
 There are    50 symmetry adapted basis functions of A'  symmetry.
 There are    24 symmetry adapted basis functions of A"  symmetry.
    74 basis functions,   120 primitive gaussians,    85 cartesian basis functions
     9 alpha electrons        8 beta electrons
       nuclear repulsion energy        32.2719538911 Hartrees.
 NAtoms=    3 NActive=    3 NUniq=    3 SFac= 1.00D+00 NAtFMM=   60 NAOKFM=F Big=F
 Integral buffers will be    131072 words long.
 Raffenetti 2 integral format.
 Two-electron integral symmetry is turned on.
 One-electron integrals computed using PRISM.
 NBasis=    74 RedAO= T EigKep=  2.23D-03  NBF=    50    24
 NBsUse=    74 1.00D-06 EigRej= -1.00D+00 NBFU=    50    24
 Initial guess from the checkpoint file:  "/wrk/irikura/Gau-9943.chk"
 B after Tr=     0.000000   -0.000000    0.000000
         Rot=    0.999992    0.000000   -0.000000   -0.003928 Ang=  -0.45 deg.
 Initial guess orbital symmetries:
 Alpha Orbitals:
       Occupied  (A') (A') (A') (A') (A') (A") (A') (A") (A')
       Virtual   (A') (A') (A') (A") (A') (A') (A') (A") (A') (A')
                 (A') (A") (A') (A') (A") (A') (A") (A') (A') (A')
                 (A") (A') (A") (A') (A') (A") (A') (A") (A') (A')
                 (A') (A") (A') (A') (A") (A') (A") (A') (A') (A")
                 (A") (A') (A') (A') (A") (A') (A') (A") (A') (A")
                 (A') (A") (A") (A') (A') (A") (A") (A') (A') (A')
                 (A") (A') (A') (A') (A')
 Beta  Orbitals:
       Occupied  (A') (A') (A') (A') (A') (A') (A") (A')
       Virtual   (A") (A') (A') (A') (A') (A") (A') (A') (A') (A")
                 (A') (A') (A") (A') (A') (A') (A") (A") (A') (A')
                 (A') (A") (A') (A') (A") (A') (A") (A') (A') (A")
                 (A') (A') (A") (A') (A') (A") (A') (A") (A') (A')
                 (A") (A") (A') (A') (A') (A") (A') (A') (A') (A")
                 (A") (A') (A") (A') (A") (A') (A") (A") (A') (A')
                 (A') (A") (A') (A') (A') (A')
 Initial guess <Sx>= 0.0000 <Sy>= 0.0000 <Sz>= 0.5000 <S**2>= 0.7539 S= 0.5020
 ExpMin= 7.42D-02 ExpMax= 1.36D+04 ExpMxC= 4.64D+02 IAcc=3 IRadAn=         5 AccDes= 0.00D+00
 Harris functional with IExCor=  402 and IRadAn=       5 diagonalized for initial guess.
 HarFok:  IExCor=  402 AccDes= 0.00D+00 IRadAn=         5 IDoV= 1 UseB2=F ITyADJ=14
 ICtDFT=  3500011 ScaDFX=  1.000000  1.000000  1.000000  1.000000
 FoFCou: FMM=F IPFlag=           0 FMFlag=      100000 FMFlg1=           0
         NFxFlg=           0 DoJE=T BraDBF=F KetDBF=T FulRan=T
         wScrn=  0.000000 ICntrl=       500 IOpCl=  0 I1Cent=   200000004 NGrid=           0
         NMat0=    1 NMatS0=      1 NMatT0=    0 NMatD0=    1 NMtDS0=    0 NMtDT0=    0
 Petite list used in FoFCou.
 Keep R1 and R2 ints in memory in symmetry-blocked form, NReq=5897921.
 Requested convergence on RMS density matrix=1.00D-08 within 128 cycles.
 Requested convergence on MAX density matrix=1.00D-06.
 Requested convergence on             energy=1.00D-06.
 No special actions if energy rises.
 Integral accuracy reduced to 1.0D-05 until final iterations.
 Initial convergence to 1.0D-05 achieved.  Increase integral accuracy.
 SCF Done:  E(UB3LYP) =  -150.975827576     A.U. after   12 cycles
            NFock= 12  Conv=0.78D-08     -V/T= 2.0026
 <Sx>= 0.0000 <Sy>= 0.0000 <Sz>= 0.5000 <S**2>= 0.7539 S= 0.5020
 <L.S>=  0.00000000000    
 Annihilation of the first spin contaminant:
 S**2 before annihilation     0.7539,   after     0.7500
 Calling FoFJK, ICntrl=      2127 FMM=F ISym2X=1 I1Cent= 0 IOpClX= 1 NMat=1 NMatS=1 NMatT=0.
 ***** Axes restored to original set *****
 -------------------------------------------------------------------
 Center     Atomic                   Forces (Hartrees/Bohr)
 Number     Number              X              Y              Z
 -------------------------------------------------------------------
      1        8          -0.008581570    0.000000000    0.001405444
      2        1           0.003775255   -0.000000000   -0.002874168
      3        8           0.004806315   -0.000000000    0.001468724
 -------------------------------------------------------------------
 Cartesian Forces:  Max     0.008581570 RMS     0.003702699

 GradGradGradGradGradGradGradGradGradGradGradGradGradGradGradGradGradGrad
 Berny optimization.
 Using GEDIIS/GDIIS optimizer.
 FormGI is forming the generalized inverse of G from B-inverse, IUseBI=4.
 Internal  Forces:  Max     0.006882782 RMS     0.004955795
 Search for a local minimum.
 Step number   2 out of a maximum of   20
 All quantities printed in internal units (Hartrees-Bohrs-Radians)
 Mixed Optimization -- RFO/linear search
 Update second derivatives using D2CorX and points    1    2
 DE= -9.42D-04 DEPred=-9.61D-04 R= 9.81D-01
 TightC=F SS=  1.41D+00  RLast= 6.81D-02 DXNew= 5.0454D-01 2.0445D-01
 Trust test= 9.81D-01 RLast= 6.81D-02 DXMaxT set to 3.00D-01
 The second derivative matrix:
                          R1        R2        A1
           R1           0.42205
           R2           0.07397   0.57253
           A1          -0.04658   0.05635   0.23325
 ITU=  1  0
 Use linear search instead of GDIIS.
     Eigenvalues ---    0.20768   0.41399   0.60617
 RFO step:  Lambda=-3.31829783D-04 EMin= 2.07675523D-01
 Quartic linear search produced a step of -0.01176.
 Iteration  1 RMS(Cart)=  0.02336411 RMS(Int)=  0.00033658
 Iteration  2 RMS(Cart)=  0.00024553 RMS(Int)=  0.00000001
 Iteration  3 RMS(Cart)=  0.00000001 RMS(Int)=  0.00000000
 ClnCor:  largest displacement from symmetrization is 4.57D-16 for atom     2.
 Variable       Old X    -DE/DX   Delta X   Delta X   Delta X     New X
                                 (Linear)    (Quad)   (Total)
    R1        1.85010  -0.00295   0.00047  -0.01348  -0.01302   1.83708
    R2        2.49263   0.00420  -0.00042   0.01288   0.01246   2.50508
    A1        1.87478  -0.00688  -0.00050  -0.03458  -0.03508   1.83970
         Item               Value     Threshold  Converged?
 Maximum Force            0.006883     0.000450     NO 
 RMS     Force            0.004956     0.000300     NO 
 Maximum Displacement     0.023786     0.001800     NO 
 RMS     Displacement     0.023430     0.001200     NO 
 Predicted change in Energy=-1.662824D-04
 GradGradGradGradGradGradGradGradGradGradGradGradGradGradGradGradGradGrad

                          Input orientation:                          
 ---------------------------------------------------------------------
 Center     Atomic      Atomic             Coordinates (Angstroms)
 Number     Number       Type             X           Y           Z
 ---------------------------------------------------------------------
      1          8           0       -0.008587    0.000000    0.016931
      2          1           0       -0.003110    0.000000    0.989059
      3          8           0        1.267401   -0.000000   -0.342455
 ---------------------------------------------------------------------
                    Distance matrix (angstroms):
                    1          2          3
     1  O    0.000000
     2  H    0.972143   0.000000
     3  O    1.325634   1.840415   0.000000
 Stoichiometry    HO2(2)
 Framework group  CS[SG(HO2)]
 Deg. of freedom     3
 Full point group                 CS      NOp   2
 Largest Abelian subgroup         CS      NOp   2
 Largest concise Abelian subgroup C1      NOp   1
                         Standard orientation:                         
 ---------------------------------------------------------------------
 Center     Atomic      Atomic             Coordinates (Angstroms)
 Number     Number       Type             X           Y           Z
 ---------------------------------------------------------------------
      1          8           0        0.055130   -0.608635    0.000000
      2          1           0       -0.882076   -0.866912   -0.000000
      3          8           0        0.055130    0.716999   -0.000000
 ---------------------------------------------------------------------
 Rotational constants (GHZ):         625.7400754          33.8420771          32.1056957
 Basis read from rwf:  (5D, 7F)
 There are    59 symmetry adapted cartesian basis functions of A'  symmetry.
 There are    26 symmetry adapted cartesian basis functions of A"  symmetry.
 There are    50 symmetry adapted basis functions of A'  symmetry.
 There are    24 symmetry adapted basis functions of A"  symmetry.
    74 basis functions,   120 primitive gaussians,    85 cartesian basis functions
     9 alpha electrons        8 beta electrons
       nuclear repulsion energy        32.2030139475 Hartrees.
 NAtoms=    3 NActive=    3 NUniq=    3 SFac= 1.00D+00 NAtFMM=   60 NAOKFM=F Big=F
 Integral buffers will be    131072 words long.
 Raffenetti 2 integral format.
 Two-electron integral symmetry is turned on.
 One-electron integrals computed using PRISM.
 NBasis=    74 RedAO= T EigKep=  2.38D-03  NBF=    50    24
 NBsUse=    74 1.00D-06 EigRej= -1.00D+00 NBFU=    50    24
 Initial guess from the checkpoint file:  "/wrk/irikura/Gau-9943.chk"
 B after Tr=    -0.000000    0.000000   -0.000000
         Rot=    0.999998   -0.000000    0.000000    0.001759 Ang=   0.20 deg.
 Initial guess orbital symmetries:
 Alpha Orbitals:
       Occupied  (A') (A') (A') (A') (A') (A") (A') (A") (A')
       Virtual   (A') (A') (A') (A') (A") (A') (A') (A") (A') (A')
                 (A') (A") (A') (A') (A") (A') (A") (A') (A') (A')
                 (A") (A') (A") (A') (A') (A") (A') (A") (A') (A')
                 (A') (A") (A') (A') (A") (A') (A") (A') (A') (A")
                 (A") (A') (A') (A') (A") (A') (A') (A") (A') (A")
                 (A') (A") (A') (A") (A') (A") (A") (A') (A') (A")
                 (A') (A') (A') (A') (A')
 Beta  Orbitals:
       Occupied  (A') (A') (A') (A') (A') (A') (A") (A')
       Virtual   (A") (A') (A') (A') (A') (A") (A') (A') (A') (A")
                 (A') (A') (A") (A') (A') (A") (A') (A") (A') (A')
                 (A') (A") (A') (A') (A") (A') (A") (A') (A") (A')
                 (A') (A') (A") (A') (A') (A") (A') (A") (A') (A')
                 (A") (A") (A') (A') (A') (A") (A') (A') (A") (A')
                 (A") (A') (A") (A') (A") (A') (A") (A') (A") (A')
                 (A') (A") (A') (A') (A') (A')
 Initial guess <Sx>= 0.0000 <Sy>= 0.0000 <Sz>= 0.5000 <S**2>= 0.7539 S= 0.5020
 ExpMin= 7.42D-02 ExpMax= 1.36D+04 ExpMxC= 4.64D+02 IAcc=3 IRadAn=         5 AccDes= 0.00D+00
 Harris functional with IExCor=  402 and IRadAn=       5 diagonalized for initial guess.
 HarFok:  IExCor=  402 AccDes= 0.00D+00 IRadAn=         5 IDoV= 1 UseB2=F ITyADJ=14
 ICtDFT=  3500011 ScaDFX=  1.000000  1.000000  1.000000  1.000000
 FoFCou: FMM=F IPFlag=           0 FMFlag=      100000 FMFlg1=           0
         NFxFlg=           0 DoJE=T BraDBF=F KetDBF=T FulRan=T
         wScrn=  0.000000 ICntrl=       500 IOpCl=  0 I1Cent=   200000004 NGrid=           0
         NMat0=    1 NMatS0=      1 NMatT0=    0 NMatD0=    1 NMtDS0=    0 NMtDT0=    0
 Petite list used in FoFCou.
 Keep R1 and R2 ints in memory in symmetry-blocked form, NReq=5897921.
 Requested convergence on RMS density matrix=1.00D-08 within 128 cycles.
 Requested convergence on MAX density matrix=1.00D-06.
 Requested convergence on             energy=1.00D-06.
 No special actions if energy rises.
 Integral accuracy reduced to 1.0D-05 until final iterations.
 Initial convergence to 1.0D-05 achieved.  Increase integral accuracy.
 SCF Done:  E(UB3LYP) =  -150.975984682     A.U. after   11 cycles
            NFock= 11  Conv=0.57D-08     -V/T= 2.0026
 <Sx>= 0.0000 <Sy>= 0.0000 <Sz>= 0.5000 <S**2>= 0.7539 S= 0.5020
 <L.S>=  0.00000000000    
 Annihilation of the first spin contaminant:
 S**2 before annihilation     0.7539,   after     0.7500
 Calling FoFJK, ICntrl=      2127 FMM=F ISym2X=1 I1Cent= 0 IOpClX= 1 NMat=1 NMatS=1 NMatT=0.
 ***** Axes restored to original set *****
 -------------------------------------------------------------------
 Center     Atomic                   Forces (Hartrees/Bohr)
 Number     Number              X              Y              Z
 -------------------------------------------------------------------
      1        8          -0.001422059    0.000000000   -0.001843301
      2        1          -0.000102935    0.000000000    0.002361560
      3        8           0.001524994   -0.000000000   -0.000518259
 -------------------------------------------------------------------
 Cartesian Forces:  Max     0.002361560 RMS     0.001229353

 GradGradGradGradGradGradGradGradGradGradGradGradGradGradGradGradGradGrad
 Berny optimization.
 Using GEDIIS/GDIIS optimizer.
 FormGI is forming the generalized inverse of G from B-inverse, IUseBI=4.
 Internal  Forces:  Max     0.002360894 RMS     0.001653935
 Search for a local minimum.
 Step number   3 out of a maximum of   20
 All quantities printed in internal units (Hartrees-Bohrs-Radians)
 Mixed Optimization -- RFO/linear search
 Update second derivatives using D2CorX and points    1    2    3
 DE= -1.57D-04 DEPred=-1.66D-04 R= 9.45D-01
 TightC=F SS=  1.41D+00  RLast= 3.94D-02 DXNew= 5.0454D-01 1.1830D-01
 Trust test= 9.45D-01 RLast= 3.94D-02 DXMaxT set to 3.00D-01
 The second derivative matrix:
                          R1        R2        A1
           R1           0.50717
           R2           0.06987   0.50337
           A1          -0.01214   0.07899   0.23488
 ITU=  1  1  0
 Use linear search instead of GDIIS.
     Eigenvalues ---    0.21018   0.45331   0.58193
 RFO step:  Lambda=-1.33994900D-05 EMin= 2.10178256D-01
 Quartic linear search produced a step of -0.05180.
 Iteration  1 RMS(Cart)=  0.00254541 RMS(Int)=  0.00000050
 Iteration  2 RMS(Cart)=  0.00000056 RMS(Int)=  0.00000000
 ClnCor:  largest displacement from symmetrization is 1.52D-15 for atom     2.
 Variable       Old X    -DE/DX   Delta X   Delta X   Delta X     New X
                                 (Linear)    (Quad)   (Total)
    R1        1.83708   0.00236   0.00067   0.00363   0.00431   1.84139
    R2        2.50508   0.00161  -0.00065   0.00320   0.00256   2.50764
    A1        1.83970   0.00021   0.00182  -0.00155   0.00027   1.83997
         Item               Value     Threshold  Converged?
 Maximum Force            0.002361     0.000450     NO 
 RMS     Force            0.001654     0.000300     NO 
 Maximum Displacement     0.002968     0.001800     NO 
 RMS     Displacement     0.002546     0.001200     NO 
 Predicted change in Energy=-7.170673D-06
 GradGradGradGradGradGradGradGradGradGradGradGradGradGradGradGradGradGrad

                          Input orientation:                          
 ---------------------------------------------------------------------
 Center     Atomic      Atomic             Coordinates (Angstroms)
 Number     Number       Type             X           Y           Z
 ---------------------------------------------------------------------
      1          8           0       -0.008903    0.000000    0.016220
      2          1           0       -0.003842    0.000000    0.990630
      3          8           0        1.268449   -0.000000   -0.343314
 ---------------------------------------------------------------------
                    Distance matrix (angstroms):
                    1          2          3
     1  O    0.000000
     2  H    0.974423   0.000000
     3  O    1.326986   1.843402   0.000000
 Stoichiometry    HO2(2)
 Framework group  CS[SG(HO2)]
 Deg. of freedom     3
 Full point group                 CS      NOp   2
 Largest Abelian subgroup         CS      NOp   2
 Largest concise Abelian subgroup C1      NOp   1
                         Standard orientation:                         
 ---------------------------------------------------------------------
 Center     Atomic      Atomic             Coordinates (Angstroms)
 Number     Number       Type             X           Y           Z
 ---------------------------------------------------------------------
      1          8           0        0.055255   -0.609221   -0.000000
      2          1           0       -0.884080   -0.868356   -0.000000
      3          8           0        0.055255    0.717765    0.000000
 ---------------------------------------------------------------------
 Rotational constants (GHZ):         622.9602599          33.7702689          32.0337407
 Basis read from rwf:  (5D, 7F)
 There are    59 symmetry adapted cartesian basis functions of A'  symmetry.
 There are    26 symmetry adapted cartesian basis functions of A"  symmetry.
 There are    50 symmetry adapted basis functions of A'  symmetry.
 There are    24 symmetry adapted basis functions of A"  symmetry.
    74 basis functions,   120 primitive gaussians,    85 cartesian basis functions
     9 alpha electrons        8 beta electrons
       nuclear repulsion energy        32.1630594124 Hartrees.
 NAtoms=    3 NActive=    3 NUniq=    3 SFac= 1.00D+00 NAtFMM=   60 NAOKFM=F Big=F
 Integral buffers will be    131072 words long.
 Raffenetti 2 integral format.
 Two-electron integral symmetry is turned on.
 One-electron integrals computed using PRISM.
 NBasis=    74 RedAO= T EigKep=  2.41D-03  NBF=    50    24
 NBsUse=    74 1.00D-06 EigRej= -1.00D+00 NBFU=    50    24
 Initial guess from the checkpoint file:  "/wrk/irikura/Gau-9943.chk"
 B after Tr=     0.000000   -0.000000   -0.000000
         Rot=    1.000000   -0.000000    0.000000    0.000028 Ang=   0.00 deg.
 Initial guess orbital symmetries:
 Alpha Orbitals:
       Occupied  (A') (A') (A') (A') (A') (A") (A') (A") (A')
       Virtual   (A') (A') (A') (A') (A") (A') (A') (A") (A') (A')
                 (A') (A") (A') (A') (A") (A') (A") (A') (A') (A')
                 (A") (A') (A") (A') (A') (A") (A') (A") (A') (A')
                 (A') (A") (A') (A') (A") (A') (A") (A') (A') (A")
                 (A") (A') (A') (A') (A") (A') (A') (A") (A') (A")
                 (A') (A") (A') (A") (A') (A") (A") (A') (A') (A")
                 (A') (A') (A') (A') (A')
 Beta  Orbitals:
       Occupied  (A') (A') (A') (A') (A') (A') (A") (A')
       Virtual   (A") (A') (A') (A') (A') (A") (A') (A') (A') (A")
                 (A') (A') (A") (A') (A') (A") (A') (A") (A') (A')
                 (A') (A") (A') (A') (A") (A') (A") (A') (A') (A")
                 (A') (A') (A") (A') (A') (A") (A') (A") (A') (A')
                 (A") (A") (A') (A') (A') (A") (A') (A') (A") (A')
                 (A") (A') (A") (A') (A") (A') (A") (A") (A') (A')
                 (A') (A") (A') (A') (A') (A')
 Initial guess <Sx>= 0.0000 <Sy>= 0.0000 <Sz>= 0.5000 <S**2>= 0.7539 S= 0.5020
 Keep R1 and R2 ints in memory in symmetry-blocked form, NReq=5897921.
 Requested convergence on RMS density matrix=1.00D-08 within 128 cycles.
 Requested convergence on MAX density matrix=1.00D-06.
 Requested convergence on             energy=1.00D-06.
 No special actions if energy rises.
 SCF Done:  E(UB3LYP) =  -150.975992917     A.U. after    9 cycles
            NFock=  9  Conv=0.24D-08     -V/T= 2.0027
 <Sx>= 0.0000 <Sy>= 0.0000 <Sz>= 0.5000 <S**2>= 0.7539 S= 0.5020
 <L.S>=  0.00000000000    
 Annihilation of the first spin contaminant:
 S**2 before annihilation     0.7539,   after     0.7500
 Calling FoFJK, ICntrl=      2127 FMM=F ISym2X=1 I1Cent= 0 IOpClX= 1 NMat=1 NMatS=1 NMatT=0.
 ***** Axes restored to original set *****
 -------------------------------------------------------------------
 Center     Atomic                   Forces (Hartrees/Bohr)
 Number     Number              X              Y              Z
 -------------------------------------------------------------------
      1        8          -0.000353706    0.000000000   -0.000190730
      2        1           0.000004875    0.000000000    0.000286496
      3        8           0.000348830   -0.000000000   -0.000095766
 -------------------------------------------------------------------
 Cartesian Forces:  Max     0.000353706 RMS     0.000203972

 GradGradGradGradGradGradGradGradGradGradGradGradGradGradGradGradGradGrad
 Berny optimization.
 Using GEDIIS/GDIIS optimizer.
 FormGI is forming the generalized inverse of G from B-inverse, IUseBI=4.
 Internal  Forces:  Max     0.000361762 RMS     0.000266443
 Search for a local minimum.
 Step number   4 out of a maximum of   20
 All quantities printed in internal units (Hartrees-Bohrs-Radians)
 Mixed Optimization -- En-DIIS/RFO-DIIS
 Update second derivatives using D2CorX and points    1    2    3    4
 DE= -8.23D-06 DEPred=-7.17D-06 R= 1.15D+00
 TightC=F SS=  1.41D+00  RLast= 5.02D-03 DXNew= 5.0454D-01 1.5050D-02
 Trust test= 1.15D+00 RLast= 5.02D-03 DXMaxT set to 3.00D-01
 The second derivative matrix:
                          R1        R2        A1
           R1           0.47269
           R2           0.01606   0.45216
           A1          -0.01189   0.08130   0.23543
 ITU=  1  1  1  0
 Use linear search instead of GDIIS.
     Eigenvalues ---    0.20732   0.46470   0.48827
 RFO step:  Lambda=-8.38803029D-08 EMin= 2.07315628D-01
 Quartic linear search produced a step of  0.17854.
 Iteration  1 RMS(Cart)=  0.00044737 RMS(Int)=  0.00000006
 Iteration  2 RMS(Cart)=  0.00000007 RMS(Int)=  0.00000000
 ClnCor:  largest displacement from symmetrization is 1.11D-15 for atom     2.
 Variable       Old X    -DE/DX   Delta X   Delta X   Delta X     New X
                                 (Linear)    (Quad)   (Total)
    R1        1.84139   0.00029   0.00077  -0.00019   0.00058   1.84197
    R2        2.50764   0.00036   0.00046   0.00038   0.00083   2.50848
    A1        1.83997  -0.00001   0.00005  -0.00033  -0.00028   1.83969
         Item               Value     Threshold  Converged?
 Maximum Force            0.000362     0.000450     YES
 RMS     Force            0.000266     0.000300     YES
 Maximum Displacement     0.000467     0.001800     YES
 RMS     Displacement     0.000447     0.001200     YES
 Predicted change in Energy=-2.328825D-07
 Optimization completed.
    -- Stationary point found.
                           ----------------------------
                           !   Optimized Parameters   !
                           ! (Angstroms and Degrees)  !
 --------------------------                            --------------------------
 ! Name  Definition              Value          Derivative Info.                !
 --------------------------------------------------------------------------------
 ! R1    R(1,2)                  0.9744         -DE/DX =    0.0003              !
 ! R2    R(1,3)                  1.327          -DE/DX =    0.0004              !
 ! A1    A(2,1,3)              105.4226         -DE/DX =    0.0                 !
 --------------------------------------------------------------------------------
 GradGradGradGradGradGradGradGradGradGradGradGradGradGradGradGradGradGrad

                          Input orientation:                          
 ---------------------------------------------------------------------
 Center     Atomic      Atomic             Coordinates (Angstroms)
 Number     Number       Type             X           Y           Z
 ---------------------------------------------------------------------
      1          8           0       -0.008903    0.000000    0.016220
      2          1           0       -0.003842    0.000000    0.990630
      3          8           0        1.268449   -0.000000   -0.343314
 ---------------------------------------------------------------------
                    Distance matrix (angstroms):
                    1          2          3
     1  O    0.000000
     2  H    0.974423   0.000000
     3  O    1.326986   1.843402   0.000000
 Stoichiometry    HO2(2)
 Framework group  CS[SG(HO2)]
 Deg. of freedom     3
 Full point group                 CS      NOp   2
 Largest Abelian subgroup         CS      NOp   2
 Largest concise Abelian subgroup C1      NOp   1
                         Standard orientation:                         
 ---------------------------------------------------------------------
 Center     Atomic      Atomic             Coordinates (Angstroms)
 Number     Number       Type             X           Y           Z
 ---------------------------------------------------------------------
      1          8           0        0.055255   -0.609221   -0.000000
      2          1           0       -0.884080   -0.868356   -0.000000
      3          8           0        0.055255    0.717765    0.000000
 ---------------------------------------------------------------------
 Rotational constants (GHZ):         622.9602599          33.7702689          32.0337407

 **********************************************************************

            Population analysis using the SCF Density.

 **********************************************************************

 Orbital symmetries:
 Alpha Orbitals:
       Occupied  (A') (A') (A') (A') (A') (A") (A') (A") (A')
       Virtual   (A') (A') (A') (A') (A") (A') (A') (A") (A') (A')
                 (A') (A") (A') (A') (A") (A') (A") (A') (A') (A')
                 (A") (A') (A") (A') (A') (A") (A') (A") (A') (A')
                 (A') (A") (A') (A') (A") (A') (A") (A') (A') (A")
                 (A") (A') (A') (A') (A") (A') (A') (A") (A') (A")
                 (A') (A") (A') (A") (A') (A") (A") (A') (A') (A")
                 (A') (A') (A') (A') (A')
 Beta  Orbitals:
       Occupied  (A') (A') (A') (A') (A') (A') (A") (A')
       Virtual   (A") (A') (A') (A') (A') (A") (A') (A') (A') (A")
                 (A') (A') (A") (A') (A') (A") (A') (A") (A') (A')
                 (A') (A") (A') (A') (A") (A') (A") (A') (A') (A")
                 (A') (A') (A") (A') (A') (A") (A') (A") (A') (A')
                 (A") (A") (A') (A') (A') (A") (A') (A') (A") (A')
                 (A") (A') (A") (A') (A") (A') (A") (A") (A') (A')
                 (A') (A") (A') (A') (A') (A')
 The electronic state is 2-A".
 Alpha  occ. eigenvalues --  -19.25959 -19.22018  -1.21010  -0.88484  -0.57701
 Alpha  occ. eigenvalues --   -0.50837  -0.49399  -0.31730  -0.31130
 Alpha virt. eigenvalues --   -0.01079   0.07264   0.25382   0.28993   0.29378
 Alpha virt. eigenvalues --    0.31552   0.35787   0.38530   0.39102   0.48695
 Alpha virt. eigenvalues --    0.70539   0.75699   0.81108   1.08795   1.24630
 Alpha virt. eigenvalues --    1.28365   1.40853   1.49861   1.61109   1.73812
 Alpha virt. eigenvalues --    1.77922   1.83009   1.95591   1.98113   2.07520
 Alpha virt. eigenvalues --    2.10002   2.32536   2.42506   2.45895   2.70982
 Alpha virt. eigenvalues --    2.94410   3.37999   3.45226   3.49128   3.57037
 Alpha virt. eigenvalues --    3.67757   3.76239   3.81266   3.93134   3.94469
 Alpha virt. eigenvalues --    4.03926   4.07927   4.19702   4.25615   4.41639
 Alpha virt. eigenvalues --    4.42398   4.63163   4.80501   4.82903   5.39868
 Alpha virt. eigenvalues --    5.48187   5.91137   5.94806   5.98856   6.00413
 Alpha virt. eigenvalues --    6.09765   6.16356   6.19740   6.29091   6.54328
 Alpha virt. eigenvalues --    6.56356   6.61991   7.04445   7.24339  11.35478
  Beta  occ. eigenvalues --  -19.25051 -19.19867  -1.18316  -0.84311  -0.56205
  Beta  occ. eigenvalues --   -0.47892  -0.42941  -0.29261
  Beta virt. eigenvalues --   -0.13411  -0.00831   0.08997   0.25590   0.29538
  Beta virt. eigenvalues --    0.31168   0.32041   0.36063   0.39456   0.41302
  Beta virt. eigenvalues --    0.49173   0.71427   0.76157   0.81176   1.09025
  Beta virt. eigenvalues --    1.27249   1.29554   1.43906   1.50644   1.63440
  Beta virt. eigenvalues --    1.74907   1.79854   1.84485   1.99041   1.99411
  Beta virt. eigenvalues --    2.08407   2.16057   2.33552   2.47005   2.47681
  Beta virt. eigenvalues --    2.72343   2.96505   3.38970   3.45934   3.50564
  Beta virt. eigenvalues --    3.57994   3.68482   3.78960   3.82343   3.96421
  Beta virt. eigenvalues --    3.98316   4.05449   4.09432   4.21020   4.27546
  Beta virt. eigenvalues --    4.42047   4.43407   4.64116   4.82034   4.83207
  Beta virt. eigenvalues --    5.43668   5.48988   5.96097   5.97208   6.01410
  Beta virt. eigenvalues --    6.07226   6.14549   6.20271   6.20595   6.30721
  Beta virt. eigenvalues --    6.56952   6.58676   6.63949   7.05523   7.25010
  Beta virt. eigenvalues --   11.36609
          Condensed to atoms (all electrons):
               1          2          3
     1  O    7.721845   0.307856   0.035131
     2  H    0.307856   0.503436  -0.040931
     3  O    0.035131  -0.040931   8.170608
          Atomic-Atomic Spin Densities.
               1          2          3
     1  O    0.400438   0.004092  -0.140558
     2  H    0.004092  -0.010416  -0.000037
     3  O   -0.140558  -0.000037   0.882983
 Mulliken charges and spin densities:
               1          2
     1  O   -0.064832   0.263973
     2  H    0.229639  -0.006360
     3  O   -0.164808   0.742388
 Sum of Mulliken charges =   0.00000   1.00000
 Mulliken charges and spin densities with hydrogens summed into heavy atoms:
               1          2
     1  O    0.164808   0.257612
     3  O   -0.164808   0.742388
 Electronic spatial extent (au):  <R**2>=             54.9422
 Charge=             -0.0000 electrons
 Dipole moment (field-independent basis, Debye):
    X=             -1.7499    Y=             -1.4651    Z=             -0.0000  Tot=              2.2822
 Quadrupole moment (field-independent basis, Debye-Ang):
   XX=            -10.0482   YY=            -11.1067   ZZ=            -11.0755
   XY=              1.6650   XZ=              0.0000   YZ=              0.0000
 Traceless Quadrupole moment (field-independent basis, Debye-Ang):
   XX=              0.6953   YY=             -0.3633   ZZ=             -0.3320
   XY=              1.6650   XZ=              0.0000   YZ=              0.0000
 Octapole moment (field-independent basis, Debye-Ang**2):
  XXX=             -2.2162  YYY=             -1.8478  ZZZ=              0.0000  XYY=             -1.7497
  XXY=             -2.0840  XXZ=             -0.0000  XZZ=             -0.2299  YZZ=              0.0373
  YYZ=             -0.0000  XYZ=             -0.0000
 Hexadecapole moment (field-independent basis, Debye-Ang**3):
 XXXX=             -9.9268 YYYY=            -37.6006 ZZZZ=             -8.6550 XXXY=              0.2194
 XXXZ=              0.0000 YYYX=              0.5015 YYYZ=              0.0000 ZZZX=              0.0000
 ZZZY=              0.0000 XXYY=             -7.9714 XXZZ=             -3.3548 YYZZ=             -8.1649
 XXYZ=              0.0000 YYXZ=              0.0000 ZZXY=             -0.2965
 N-N= 3.216305941237D+01 E-N=-4.217031653629D+02  KE= 1.505728070124D+02
 Symmetry A'   KE= 1.431571036435D+02
 Symmetry A"   KE= 7.415703368921D+00
 Symmetry A'   SP= 2.006042105026D-14
 Symmetry A"   SP= 1.000000000000D+00
                          Isotropic Fermi Contact Couplings
        Atom                 a.u.       MegaHertz       Gauss      10(-4) cm-1
     1  O(17)              0.08291     -50.25935     -17.93378     -16.76471
     2  H(1)              -0.00567     -25.32731      -9.03742      -8.44828
     3  O(17)              0.17884    -108.41322     -38.68453     -36.16276
 --------------------------------------------------------
       Center         ----  Spin Dipole Couplings  ----
                      3XX-RR        3YY-RR        3ZZ-RR
 --------------------------------------------------------
     1   Atom       -0.738696     -0.785227      1.523923
     2   Atom        0.046376     -0.022698     -0.023678
     3   Atom       -1.672405     -1.694962      3.367367
 --------------------------------------------------------
                        XY            XZ            YZ
 --------------------------------------------------------
     1   Atom        0.026512      0.000000      0.000000
     2   Atom        0.040242     -0.000000      0.000000
     3   Atom       -0.007587     -0.000000     -0.000000
 --------------------------------------------------------


 ---------------------------------------------------------------------------------
              Anisotropic Spin Dipole Couplings in Principal Axis System
 ---------------------------------------------------------------------------------

       Atom             a.u.   MegaHertz   Gauss  10(-4) cm-1        Axes

              Baa    -0.7972    57.687    20.584    19.242 -0.4126  0.9109 -0.0000
     1 O(17)  Bbb    -0.7267    52.583    18.763    17.540  0.9109  0.4126  0.0000
              Bcc     1.5239  -110.270   -39.347   -36.782  0.0000  0.0000  1.0000
 
              Baa    -0.0412   -21.978    -7.842    -7.331 -0.4176  0.9086  0.0000
     2 H(1)   Bbb    -0.0237   -12.633    -4.508    -4.214  0.0000  0.0000  1.0000
              Bcc     0.0649    34.611    12.350    11.545  0.9086  0.4176  0.0000
 
              Baa    -1.6973   122.814    43.823    40.966  0.2918  0.9565 -0.0000
     3 O(17)  Bbb    -1.6701   120.847    43.121    40.310  0.9565 -0.2918  0.0000
              Bcc     3.3674  -243.660   -86.944   -81.276  0.0000  0.0000  1.0000
 

 ---------------------------------------------------------------------------------

 B after Tr=    -0.004475   -0.000000   -0.016746
         Rot=    0.999991    0.000000    0.004219   -0.000000 Ang=   0.48 deg.
 Final structure in terms of initial Z-matrix:
 O
 H,1,r
 O,1,ro,2,a
      Variables:
 r=0.97442316
 ro=1.32698632
 a=105.4226143
 1\1\GINC-GAMBA\FOpt\UB3LYP\Gen\H1O2(2)\IRIKURA\14-Jun-2022\0\\# b3lyp/
 gen opt freq\\HO2, B3LYP/pcseg-2\\0,2\O,-0.0089033038,0.,0.0162198346\
 H,-0.00384169,0.,0.9906298479\O,1.268448568,0.,-0.3433144411\\Version=
 ES64L-G16RevB.01\State=2-A"\HF=-150.9759929\S2=0.753945\S2-1=0.\S2A=0.
 75001\RMSD=2.402e-09\RMSF=2.040e-04\Dipole=-0.368334,0.,0.8188753\Quad
 rupole=-0.8579935,-0.2468496,1.104843,0.,-0.8508899,0.\PG=CS [SG(H1O2)
 ]\\@


 VIRTUE IS LEARNED AT YOUR MOTHER'S KNEE,
 VICES ARE PICKED UP AT SOME OTHER JOINT.
 Job cpu time:       0 days  0 hours  0 minutes 37.9 seconds.
 Elapsed time:       0 days  0 hours  0 minutes 38.3 seconds.
 File lengths (MBytes):  RWF=     10 Int=      0 D2E=      0 Chk=      2 Scr=      1
 Normal termination of Gaussian 16 at Tue Jun 14 20:20:16 2022.
 Link1:  Proceeding to internal job step number  2.
 ------------------------------------------------------------------
 #N Geom=AllCheck Guess=TCheck SCRF=Check GenChk UB3LYP/ChkBas Freq
 ------------------------------------------------------------------
 1/10=4,29=7,30=1,38=1,40=1/1,3;
 2/12=2,40=1/2;
 3/5=7,6=2,11=2,14=-4,25=1,30=1,67=1,70=2,71=2,74=-5,82=7,116=2,140=1/1,2,3;
 4/5=101/1;
 5/5=2,38=6,98=1/2;
 8/6=4,10=90,11=11/1;
 11/6=1,8=1,9=11,15=111,16=1/1,2,10;
 10/6=1/2;
 6/7=2,8=2,9=2,10=2,28=1/1;
 7/8=1,10=1,25=1/1,2,3,16;
 1/10=4,30=1/3;
 99//99;
 Structure from the checkpoint file:  "/wrk/irikura/Gau-9943.chk"
 ------------------
 HO2, B3LYP/pcseg-2
 ------------------
 Charge =  0 Multiplicity = 2
 Redundant internal coordinates found in file.  (old form).
 O,0,-0.0089033038,0.,0.0162198346
 H,0,-0.00384169,0.,0.9906298479
 O,0,1.268448568,0.,-0.3433144411
 Recover connectivity data from disk.

 GradGradGradGradGradGradGradGradGradGradGradGradGradGradGradGradGradGrad
 Berny optimization.
 Initialization pass.
                           ----------------------------
                           !    Initial Parameters    !
                           ! (Angstroms and Degrees)  !
 --------------------------                            --------------------------
 ! Name  Definition              Value          Derivative Info.                !
 --------------------------------------------------------------------------------
 ! R1    R(1,2)                  0.9744         calculate D2E/DX2 analytically  !
 ! R2    R(1,3)                  1.327          calculate D2E/DX2 analytically  !
 ! A1    A(2,1,3)              105.4226         calculate D2E/DX2 analytically  !
 --------------------------------------------------------------------------------
 Trust Radius=3.00D-01 FncErr=1.00D-07 GrdErr=1.00D-07 EigMax=2.50D+02 EigMin=1.00D-04
 Number of steps in this run=      2 maximum allowed number of steps=      2.
 GradGradGradGradGradGradGradGradGradGradGradGradGradGradGradGradGradGrad

                          Input orientation:                          
 ---------------------------------------------------------------------
 Center     Atomic      Atomic             Coordinates (Angstroms)
 Number     Number       Type             X           Y           Z
 ---------------------------------------------------------------------
      1          8           0       -0.008903    0.000000    0.016220
      2          1           0       -0.003842    0.000000    0.990630
      3          8           0        1.268449   -0.000000   -0.343314
 ---------------------------------------------------------------------
                    Distance matrix (angstroms):
                    1          2          3
     1  O    0.000000
     2  H    0.974423   0.000000
     3  O    1.326986   1.843402   0.000000
 Stoichiometry    HO2(2)
 Framework group  CS[SG(HO2)]
 Deg. of freedom     3
 Full point group                 CS      NOp   2
 Largest Abelian subgroup         CS      NOp   2
 Largest concise Abelian subgroup C1      NOp   1
                         Standard orientation:                         
 ---------------------------------------------------------------------
 Center     Atomic      Atomic             Coordinates (Angstroms)
 Number     Number       Type             X           Y           Z
 ---------------------------------------------------------------------
      1          8           0        0.055255   -0.609221   -0.000000
      2          1           0       -0.884080   -0.868356   -0.000000
      3          8           0        0.055255    0.717765    0.000000
 ---------------------------------------------------------------------
 Rotational constants (GHZ):         622.9602599          33.7702689          32.0337407
 Basis read from chk: "/wrk/irikura/Gau-9943.chk" (5D, 7F)
 There are    59 symmetry adapted cartesian basis functions of A'  symmetry.
 There are    26 symmetry adapted cartesian basis functions of A"  symmetry.
 There are    50 symmetry adapted basis functions of A'  symmetry.
 There are    24 symmetry adapted basis functions of A"  symmetry.
    74 basis functions,   120 primitive gaussians,    85 cartesian basis functions
     9 alpha electrons        8 beta electrons
       nuclear repulsion energy        32.1630594124 Hartrees.
 NAtoms=    3 NActive=    3 NUniq=    3 SFac= 1.00D+00 NAtFMM=   60 NAOKFM=F Big=F
 Integral buffers will be    131072 words long.
 Raffenetti 2 integral format.
 Two-electron integral symmetry is turned on.
 One-electron integrals computed using PRISM.
 NBasis=    74 RedAO= T EigKep=  2.41D-03  NBF=    50    24
 NBsUse=    74 1.00D-06 EigRej= -1.00D+00 NBFU=    50    24
 Initial guess from the checkpoint file:  "/wrk/irikura/Gau-9943.chk"
 B after Tr=     0.000000   -0.000000    0.000000
         Rot=    1.000000   -0.000000   -0.000000   -0.000000 Ang=   0.00 deg.
 Initial guess orbital symmetries:
 Alpha Orbitals:
       Occupied  (A') (A') (A') (A') (A') (A") (A') (A") (A')
       Virtual   (A') (A') (A') (A') (A") (A') (A') (A") (A') (A')
                 (A') (A") (A') (A') (A") (A') (A") (A') (A') (A')
                 (A") (A') (A") (A') (A') (A") (A') (A") (A') (A')
                 (A') (A") (A') (A') (A") (A') (A") (A') (A') (A")
                 (A") (A') (A') (A') (A") (A') (A') (A") (A') (A")
                 (A') (A") (A') (A") (A') (A") (A") (A') (A') (A")
                 (A') (A') (A') (A') (A')
 Beta  Orbitals:
       Occupied  (A') (A') (A') (A') (A') (A') (A") (A')
       Virtual   (A") (A') (A') (A') (A') (A") (A') (A') (A') (A")
                 (A') (A') (A") (A') (A') (A") (A') (A") (A') (A')
                 (A') (A") (A') (A') (A") (A') (A") (A') (A') (A")
                 (A') (A') (A") (A') (A') (A") (A') (A") (A') (A')
                 (A") (A") (A') (A') (A') (A") (A') (A') (A") (A')
                 (A") (A') (A") (A') (A") (A') (A") (A") (A') (A')
                 (A') (A") (A') (A') (A') (A')
 Initial guess <Sx>= 0.0000 <Sy>= 0.0000 <Sz>= 0.5000 <S**2>= 0.7539 S= 0.5020
 Keep R1 and R2 ints in memory in symmetry-blocked form, NReq=5897921.
 Requested convergence on RMS density matrix=1.00D-08 within 128 cycles.
 Requested convergence on MAX density matrix=1.00D-06.
 Requested convergence on             energy=1.00D-06.
 No special actions if energy rises.
 SCF Done:  E(UB3LYP) =  -150.975992917     A.U. after    1 cycles
            NFock=  1  Conv=0.57D-09     -V/T= 2.0027
 <Sx>= 0.0000 <Sy>= 0.0000 <Sz>= 0.5000 <S**2>= 0.7539 S= 0.5020
 <L.S>=  0.00000000000    
 Annihilation of the first spin contaminant:
 S**2 before annihilation     0.7539,   after     0.7500
 DoSCS=F DFT=T ScalE2(SS,OS)=  1.000000  1.000000
 Range of M.O.s used for correlation:     1    74
 NBasis=    74 NAE=     9 NBE=     8 NFC=     0 NFV=     0
 NROrb=     74 NOA=     9 NOB=     8 NVA=    65 NVB=    66

 **** Warning!!: The largest alpha MO coefficient is  0.10205739D+02


 **** Warning!!: The largest beta MO coefficient is  0.10204177D+02

 Symmetrizing basis deriv contribution to polar:
 IMax=3 JMax=2 DiffMx= 0.00D+00
 G2DrvN: will do     4 centers at a time, making    1 passes.
 Calling FoFCou, ICntrl=  3107 FMM=F I1Cent=   0 AccDes= 0.00D+00.
 End of G2Drv F.D. properties file   721 does not exist.
 End of G2Drv F.D. properties file   722 does not exist.
 End of G2Drv F.D. properties file   788 does not exist.
          IDoAtm=111
          Differentiating once with respect to electric field.
                with respect to dipole field.
          Differentiating once with respect to nuclear coordinates.
 Keep R1 and R2 ints in memory in symmetry-blocked form, NReq=5899403.
          There are    12 degrees of freedom in the 1st order CPHF.  IDoFFX=6 NUNeed=     3.
      9 vectors produced by pass  0 Test12= 9.28D-15 8.33D-09 XBig12= 2.72D+01 3.85D+00.
 AX will form     9 AO Fock derivatives at one time.
      9 vectors produced by pass  1 Test12= 9.28D-15 8.33D-09 XBig12= 1.32D+01 1.15D+00.
      9 vectors produced by pass  2 Test12= 9.28D-15 8.33D-09 XBig12= 1.49D+00 5.01D-01.
      9 vectors produced by pass  3 Test12= 9.28D-15 8.33D-09 XBig12= 4.98D-02 5.97D-02.
      9 vectors produced by pass  4 Test12= 9.28D-15 8.33D-09 XBig12= 5.18D-04 4.71D-03.
      9 vectors produced by pass  5 Test12= 9.28D-15 8.33D-09 XBig12= 5.95D-06 7.56D-04.
      9 vectors produced by pass  6 Test12= 9.28D-15 8.33D-09 XBig12= 3.13D-08 3.59D-05.
      4 vectors produced by pass  7 Test12= 9.28D-15 8.33D-09 XBig12= 9.87D-11 2.18D-06.
      1 vectors produced by pass  8 Test12= 9.28D-15 8.33D-09 XBig12= 5.74D-13 1.83D-07.
      1 vectors produced by pass  9 Test12= 9.28D-15 8.33D-09 XBig12= 3.31D-15 1.38D-08.
 InvSVY:  IOpt=1 It=  1 EMax= 6.66D-16
 Solved reduced A of dimension    69 with     9 vectors.
 Isotropic polarizability for W=    0.000000       10.99 Bohr**3.
 End of Minotr F.D. properties file   721 does not exist.
 End of Minotr F.D. properties file   722 does not exist.
 End of Minotr F.D. properties file   788 does not exist.

 **********************************************************************

            Population analysis using the SCF Density.

 **********************************************************************

 Orbital symmetries:
[...]
       Virtual   (A') (A') (A') (A') (A") (A') (A') (A") (A') (A')
                 (A') (A") (A') (A') (A") (A') (A") (A') (A') (A')
                 (A") (A') (A") (A') (A') (A") (A') (A") (A') (A')
                 (A') (A") (A') (A') (A") (A') (A") (A') (A') (A")
                 (A") (A') (A') (A') (A") (A') (A') (A") (A') (A")
                 (A') (A") (A') (A") (A') (A") (A") (A') (A') (A")
                 (A') (A') (A') (A') (A')
 Beta  Orbitals:
       Occupied  (A') (A') (A') (A') (A') (A') (A") (A')
       Virtual   (A") (A') (A') (A') (A') (A") (A') (A') (A') (A")
                 (A') (A') (A") (A') (A') (A") (A') (A") (A') (A')
                 (A') (A") (A') (A') (A") (A') (A") (A') (A') (A")
                 (A') (A') (A") (A') (A') (A") (A') (A") (A') (A')
                 (A") (A") (A') (A') (A') (A") (A') (A') (A") (A')
                 (A") (A') (A") (A') (A") (A') (A") (A") (A') (A')
                 (A') (A") (A') (A') (A') (A')
 The electronic state is 2-A".
 Alpha  occ. eigenvalues --  -19.25959 -19.22018  -1.21010  -0.88484  -0.57701
 Alpha  occ. eigenvalues --   -0.50837  -0.49399  -0.31730  -0.31130
 Alpha virt. eigenvalues --   -0.01079   0.07264   0.25382   0.28993   0.29378
 Alpha virt. eigenvalues --    0.31552   0.35787   0.38530   0.39102   0.48695
 Alpha virt. eigenvalues --    0.70539   0.75699   0.81108   1.08795   1.24630
 Alpha virt. eigenvalues --    1.28365   1.40853   1.49861   1.61109   1.73812
 Alpha virt. eigenvalues --    1.77922   1.83009   1.95591   1.98113   2.07520
 Alpha virt. eigenvalues --    2.10002   2.32536   2.42506   2.45895   2.70982
 Alpha virt. eigenvalues --    2.94410   3.37999   3.45226   3.49128   3.57037
 Alpha virt. eigenvalues --    3.67757   3.76239   3.81266   3.93134   3.94469
 Alpha virt. eigenvalues --    4.03926   4.07927   4.19702   4.25615   4.41639
 Alpha virt. eigenvalues --    4.42398   4.63163   4.80501   4.82903   5.39868
 Alpha virt. eigenvalues --    5.48187   5.91137   5.94806   5.98856   6.00413
 Alpha virt. eigenvalues --    6.09765   6.16356   6.19740   6.29091   6.54328
 Alpha virt. eigenvalues --    6.56356   6.61991   7.04445   7.24339  11.35478
  Beta  occ. eigenvalues --  -19.25051 -19.19867  -1.18316  -0.84311  -0.56205
  Beta  occ. eigenvalues --   -0.47892  -0.42941  -0.29261
  Beta virt. eigenvalues --   -0.13411  -0.00831   0.08997   0.25590   0.29538
  Beta virt. eigenvalues --    0.31168   0.32041   0.36063   0.39456   0.41302
  Beta virt. eigenvalues --    0.49173   0.71427   0.76157   0.81176   1.09025
  Beta virt. eigenvalues --    1.27249   1.29554   1.43906   1.50644   1.63440
  Beta virt. eigenvalues --    1.74907   1.79854   1.84485   1.99041   1.99411
  Beta virt. eigenvalues --    2.08407   2.16057   2.33552   2.47005   2.47681
  Beta virt. eigenvalues --    2.72343   2.96505   3.38970   3.45934   3.50564
  Beta virt. eigenvalues --    3.57994   3.68482   3.78960   3.82343   3.96421
  Beta virt. eigenvalues --    3.98316   4.05449   4.09432   4.21020   4.27546
  Beta virt. eigenvalues --    4.42047   4.43407   4.64116   4.82034   4.83207
  Beta virt. eigenvalues --    5.43668   5.48988   5.96097   5.97208   6.01410
  Beta virt. eigenvalues --    6.07226   6.14549   6.20271   6.20595   6.30721
  Beta virt. eigenvalues --    6.56952   6.58676   6.63949   7.05523   7.25010
  Beta virt. eigenvalues --   11.36609
          Condensed to atoms (all electrons):
               1          2          3
     1  O    7.721845   0.307856   0.035131
     2  H    0.307856   0.503436  -0.040931
     3  O    0.035131  -0.040931   8.170608
          Atomic-Atomic Spin Densities.
               1          2          3
     1  O    0.400438   0.004092  -0.140558
     2  H    0.004092  -0.010416  -0.000037
     3  O   -0.140558  -0.000037   0.882983
 Mulliken charges and spin densities:
               1          2
     1  O   -0.064832   0.263972
     2  H    0.229639  -0.006360
     3  O   -0.164808   0.742388
 Sum of Mulliken charges =   0.00000   1.00000
 Mulliken charges and spin densities with hydrogens summed into heavy atoms:
               1          2
     1  O    0.164808   0.257612
     3  O   -0.164808   0.742388
 APT charges:
               1
     1  O   -0.245382
     2  H    0.264961
     3  O   -0.019579
 Sum of APT charges =  -0.00000
 APT charges with hydrogens summed into heavy atoms:
               1
     1  O    0.019579
     3  O   -0.019579
 Electronic spatial extent (au):  <R**2>=             54.9422
 Charge=              0.0000 electrons
 Dipole moment (field-independent basis, Debye):
    X=             -1.7499    Y=             -1.4651    Z=             -0.0000  Tot=              2.2822
 Quadrupole moment (field-independent basis, Debye-Ang):
   XX=            -10.0482   YY=            -11.1067   ZZ=            -11.0755
   XY=              1.6650   XZ=              0.0000   YZ=              0.0000
 Traceless Quadrupole moment (field-independent basis, Debye-Ang):
   XX=              0.6953   YY=             -0.3633   ZZ=             -0.3320
   XY=              1.6650   XZ=              0.0000   YZ=              0.0000
 Octapole moment (field-independent basis, Debye-Ang**2):
  XXX=             -2.2162  YYY=             -1.8478  ZZZ=             -0.0000  XYY=             -1.7497
  XXY=             -2.0840  XXZ=             -0.0000  XZZ=             -0.2299  YZZ=              0.0373
  YYZ=             -0.0000  XYZ=             -0.0000
 Hexadecapole moment (field-independent basis, Debye-Ang**3):
 XXXX=             -9.9268 YYYY=            -37.6006 ZZZZ=             -8.6550 XXXY=              0.2194
 XXXZ=             -0.0000 YYYX=              0.5015 YYYZ=              0.0000 ZZZX=             -0.0000
 ZZZY=              0.0000 XXYY=             -7.9714 XXZZ=             -3.3548 YYZZ=             -8.1649
 XXYZ=              0.0000 YYXZ=              0.0000 ZZXY=             -0.2965
 N-N= 3.216305941237D+01 E-N=-4.217031653161D+02  KE= 1.505728070042D+02
 Symmetry A'   KE= 1.431571036388D+02
 Symmetry A"   KE= 7.415703365478D+00
 Symmetry A'   SP= 6.841734989692D-15
 Symmetry A"   SP= 1.000000000000D+00
  Exact polarizability:   9.032   1.505  16.821   0.000   0.000   7.102
 Approx polarizability:  11.341   1.807  25.299   0.000  -0.000   8.647
                          Isotropic Fermi Contact Couplings
        Atom                 a.u.       MegaHertz       Gauss      10(-4) cm-1
     1  O(17)              0.08291     -50.25932     -17.93378     -16.76471
     2  H(1)              -0.00567     -25.32723      -9.03739      -8.44825
     3  O(17)              0.17884    -108.41321     -38.68453     -36.16275
 --------------------------------------------------------
       Center         ----  Spin Dipole Couplings  ----
                      3XX-RR        3YY-RR        3ZZ-RR
 --------------------------------------------------------
     1   Atom       -0.738696     -0.785227      1.523923
     2   Atom        0.046376     -0.022698     -0.023678
     3   Atom       -1.672405     -1.694962      3.367367
 --------------------------------------------------------
                        XY            XZ            YZ
 --------------------------------------------------------
     1   Atom        0.026512     -0.000000     -0.000000
     2   Atom        0.040242     -0.000000      0.000000
     3   Atom       -0.007588      0.000000     -0.000000
 --------------------------------------------------------


 ---------------------------------------------------------------------------------
              Anisotropic Spin Dipole Couplings in Principal Axis System
 ---------------------------------------------------------------------------------

       Atom             a.u.   MegaHertz   Gauss  10(-4) cm-1        Axes

              Baa    -0.7972    57.687    20.584    19.242 -0.4126  0.9109 -0.0000
     1 O(17)  Bbb    -0.7267    52.583    18.763    17.540  0.9109  0.4126 -0.0000
              Bcc     1.5239  -110.270   -39.347   -36.782  0.0000  0.0000  1.0000
 
              Baa    -0.0412   -21.978    -7.842    -7.331 -0.4176  0.9086 -0.0000
     2 H(1)   Bbb    -0.0237   -12.633    -4.508    -4.214  0.0000  0.0000  1.0000
              Bcc     0.0649    34.611    12.350    11.545  0.9086  0.4176 -0.0000
 
              Baa    -1.6973   122.814    43.823    40.966  0.2918  0.9565 -0.0000
     3 O(17)  Bbb    -1.6701   120.847    43.121    40.310  0.9565 -0.2918  0.0000
              Bcc     3.3674  -243.660   -86.944   -81.276  0.0000  0.0000  1.0000
 

 ---------------------------------------------------------------------------------

 Calling FoFJK, ICntrl=    100127 FMM=F ISym2X=1 I1Cent= 0 IOpClX= 1 NMat=1 NMatS=1 NMatT=0.
 Full mass-weighted force constant matrix:
 Low frequencies ---  -70.4802  -25.8678  -21.4069   -0.0018   -0.0006    0.0005
 Low frequencies --- 1163.2292 1432.2598 3606.9556
 Diagonal vibrational polarizability:
        0.0647455       1.0772348       0.0000000
 Harmonic frequencies (cm**-1), IR intensities (KM/Mole), Raman scattering
 activities (A**4/AMU), depolarization ratios for plane and unpolarized
 incident light, reduced masses (AMU), force constants (mDyne/A),
 and normal coordinates:
                      1                      2                      3
                     A'                     A'                     A'
 Frequencies --   1163.2292              1432.2597              3606.9556
 Red. masses --     12.1790                 1.1422                 1.0686
 Frc consts  --      9.7094                 1.3804                 8.1914
 IR Inten    --     29.5722                37.9844                26.8448
  Atom  AN      X      Y      Z        X      Y      Z        X      Y      Z
     1   8    -0.04   0.62  -0.00     0.06  -0.00   0.00    -0.06  -0.01  -0.00
     2   1     0.20  -0.46   0.00    -0.19   0.98  -0.00     0.97   0.24   0.00
     3   8     0.02  -0.59   0.00    -0.05  -0.06  -0.00     0.00  -0.00   0.00

 -------------------
 - Thermochemistry -
 -------------------
 Temperature   298.150 Kelvin.  Pressure   1.00000 Atm.
 Atom     1 has atomic number  8 and mass  15.99491
 Atom     2 has atomic number  1 and mass   1.00783
 Atom     3 has atomic number  8 and mass  15.99491
 Molecular mass:    32.99765 amu.
 Principal axes and moments of inertia in atomic units:
                           1         2         3
     Eigenvalues --     2.89704  53.44172  56.33876
           X            0.05993   0.99820   0.00000
           Y            0.99820  -0.05993   0.00000
           Z            0.00000   0.00000   1.00000
 This molecule is an asymmetric top.
 Rotational symmetry number  1.
 Rotational temperatures (Kelvin)     29.89738     1.62072     1.53738
 Rotational constants (GHZ):         622.96026    33.77027    32.03374
 Zero-point vibrational energy      37098.9 (Joules/Mol)
                                    8.86684 (Kcal/Mol)
 Vibrational temperatures:   1673.63  2060.70  5189.60
          (Kelvin)
 
 Zero-point correction=                           0.014130 (Hartree/Particle)
 Thermal correction to Energy=                    0.016989
 Thermal correction to Enthalpy=                  0.017933
 Thermal correction to Gibbs Free Energy=        -0.008044
 Sum of electronic and zero-point Energies=           -150.961863
 Sum of electronic and thermal Energies=              -150.959004
 Sum of electronic and thermal Enthalpies=            -150.958060
 Sum of electronic and thermal Free Energies=         -150.984037
 
                     E (Thermal)             CV                S
                      KCal/Mol        Cal/Mol-Kelvin    Cal/Mol-Kelvin
 Total                   10.661              6.287             54.673
 Electronic               0.000              0.000              1.377
 Translational            0.889              2.981             36.413
 Rotational               0.889              2.981             16.819
 Vibrational              8.883              0.325              0.064
                       Q            Log10(Q)             Ln(Q)
 Total Bot       0.501137D+04          3.699957          8.519465
 Total V=0       0.158269D+11         10.199396         23.484976
 Vib (Bot)       0.318113D-06         -6.497418        -14.960859
 Vib (V=0)       0.100466D+01          0.002020          0.004652
 Electronic      0.200000D+01          0.301030          0.693147
 Translational   0.745038D+07          6.872178         15.823776
 Rotational      0.105722D+04          3.024167          6.963401
 ***** Axes restored to original set *****
 -------------------------------------------------------------------
 Center     Atomic                   Forces (Hartrees/Bohr)
 Number     Number              X              Y              Z
 -------------------------------------------------------------------
      1        8          -0.000353700    0.000000000   -0.000190734
      2        1           0.000004875    0.000000000    0.000286498
      3        8           0.000348825   -0.000000000   -0.000095764
 -------------------------------------------------------------------
 Cartesian Forces:  Max     0.000353700 RMS     0.000203971
 FormGI is forming the generalized inverse of G from B-inverse, IUseBI=4.

 GradGradGradGradGradGradGradGradGradGradGradGradGradGradGradGradGradGrad
 Berny optimization.
 Internal  Forces:  Max     0.000361756 RMS     0.000266441
 Search for a local minimum.
 Step number   1 out of a maximum of    2
 All quantities printed in internal units (Hartrees-Bohrs-Radians)
 Second derivative matrix not updated -- analytic derivatives used.
 The second derivative matrix:
                          R1        R2        A1
           R1           0.46624
           R2           0.02050   0.44256
           A1          -0.01208   0.08129   0.23556
 ITU=  0
     Eigenvalues ---    0.20619   0.45361   0.48456
 Angle between quadratic step and forces=  15.63 degrees.
 Linear search not attempted -- first point.
 Iteration  1 RMS(Cart)=  0.00044848 RMS(Int)=  0.00000006
 Iteration  2 RMS(Cart)=  0.00000007 RMS(Int)=  0.00000000
 ClnCor:  largest displacement from symmetrization is 3.51D-16 for atom     2.
 Variable       Old X    -DE/DX   Delta X   Delta X   Delta X     New X
                                 (Linear)    (Quad)   (Total)
    R1        1.84139   0.00029   0.00000   0.00057   0.00057   1.84196
    R2        2.50764   0.00036   0.00000   0.00084   0.00084   2.50848
    A1        1.83997  -0.00001   0.00000  -0.00029  -0.00029   1.83968
         Item               Value     Threshold  Converged?
 Maximum Force            0.000362     0.000450     YES
 RMS     Force            0.000266     0.000300     YES
 Maximum Displacement     0.000471     0.001800     YES
 RMS     Displacement     0.000448     0.001200     YES
 Predicted change in Energy=-2.351469D-07
 Optimization completed.
    -- Stationary point found.
                           ----------------------------
                           !   Optimized Parameters   !
                           ! (Angstroms and Degrees)  !
 --------------------------                            --------------------------
 ! Name  Definition              Value          Derivative Info.                !
 --------------------------------------------------------------------------------
 ! R1    R(1,2)                  0.9744         -DE/DX =    0.0003              !
 ! R2    R(1,3)                  1.327          -DE/DX =    0.0004              !
 ! A1    A(2,1,3)              105.4226         -DE/DX =    0.0                 !
 --------------------------------------------------------------------------------
 GradGradGradGradGradGradGradGradGradGradGradGradGradGradGradGradGradGrad


 ----------------------------------------------------------------------

 Electric dipole moment (input orientation):
 (Debye = 10**-18 statcoulomb cm , SI units = C m)
                  (au)            (Debye)         (10**-30 SI)
   Tot        0.897901D+00      0.228224D+01      0.761272D+01
   x         -0.368334D+00     -0.936212D+00     -0.312287D+01
   y          0.000000D+00      0.000000D+00      0.000000D+00
   z          0.818875D+00      0.208137D+01      0.694271D+01

 Dipole polarizability, Alpha (input orientation).
 (esu units = cm**3 , SI units = C**2 m**2 J**-1)
 Alpha(0;0):
               (au)            (10**-24 esu)      (10**-40 SI)
   iso        0.109851D+02      0.162783D+01      0.181120D+01
   aniso      0.928541D+01      0.137596D+01      0.153096D+01
   xx         0.154645D+02      0.229161D+01      0.254975D+01
   yx         0.000000D+00      0.000000D+00      0.000000D+00
   yy         0.710209D+01      0.105242D+01      0.117098D+01
   zx        -0.331516D+01     -0.491256D+00     -0.546596D+00
   zy         0.000000D+00      0.000000D+00      0.000000D+00
   zz         0.103887D+02      0.153945D+01      0.171287D+01

 ----------------------------------------------------------------------

 Dipole orientation:
     8         -0.00277045          0.00000000          0.03485520
     1          0.76131256          0.00000000          1.71023724
     8          1.91991777         -0.00000000         -1.57496839

 Electric dipole moment (dipole orientation):
 (Debye = 10**-18 statcoulomb cm , SI units = C m)
                  (au)            (Debye)         (10**-30 SI)
   Tot        0.897901D+00      0.228224D+01      0.761272D+01
   x          0.000000D+00      0.000000D+00      0.000000D+00
   y          0.000000D+00      0.000000D+00      0.000000D+00
   z          0.897901D+00      0.228224D+01      0.761272D+01

 Dipole polarizability, Alpha (dipole orientation).
 (esu units = cm**3 , SI units = C**2 m**2 J**-1)
 Alpha(0;0):
               (au)            (10**-24 esu)      (10**-40 SI)
   iso        0.109851D+02      0.162783D+01      0.181120D+01
   aniso      0.928541D+01      0.137596D+01      0.153096D+01
   xx         0.121299D+02      0.179746D+01      0.199995D+01
   yx         0.000000D+00      0.000000D+00      0.000000D+00
   yy         0.710209D+01      0.105242D+01      0.117098D+01
   zx        -0.409834D+01     -0.607311D+00     -0.675725D+00
   zy         0.000000D+00      0.000000D+00      0.000000D+00
   zz         0.137234D+02      0.203359D+01      0.226268D+01

 ----------------------------------------------------------------------
 1\1\GINC-GAMBA\Freq\UB3LYP\Gen\H1O2(2)\IRIKURA\14-Jun-2022\0\\#N Geom=
 AllCheck Guess=TCheck SCRF=Check GenChk UB3LYP/ChkBas Freq\\HO2, B3LYP
 /pcseg-2\\0,2\O,-0.0089033038,0.,0.0162198346\H,-0.00384169,0.,0.99062
 98479\O,1.268448568,0.,-0.3433144411\\Version=ES64L-G16RevB.01\State=2
 -A"\HF=-150.9759929\S2=0.753945\S2-1=0.\S2A=0.75001\RMSD=5.678e-10\RMS
 F=2.040e-04\ZeroPoint=0.0141302\Thermal=0.0169887\Dipole=-0.368334,0.,
 0.8188752\DipoleDeriv=-0.4685336,0.,0.0999634,0.,-0.2337331,0.,0.24146
 94,0.,-0.0338806,0.2380796,0.,-0.0095186,0.,0.3878571,0.,-0.0190475,0.
 ,0.1689463,0.2304541,0.,-0.0904448,0.,-0.1541241,0.,-0.2224219,0.,-0.1
 350657\Polar=15.4645195,0.,7.1020921,-3.3151607,0.,10.3887445\Quadrupo
 le=-0.8579935,-0.2468495,1.104843,0.,-0.8508898,0.\PG=CS [SG(H1O2)]\NI
 mag=0\\0.40816614,0.,-0.00033050,-0.04247417,0.,0.54766159,-0.04083094
 ,0.,-0.06968421,0.06939595,0.,0.00018176,0.,0.,-0.00017704,-0.02981041
 ,0.,-0.46492478,0.00862193,0.,0.46616307,-0.36733520,0.,0.11215838,-0.
 02856501,0.,0.02118848,0.39590021,0.,0.00014874,0.,0.,-0.00000472,0.,0
 .,-0.00014402,0.07228457,0.,-0.08273681,0.06106228,0.,-0.00123830,-0.1
 3334686,0.,0.08397511\\0.00035370,0.,0.00019073,-0.00000488,0.,-0.0002
 8650,-0.00034882,0.,0.00009576\\\@


 Until you make peace with who you are,
 you'll never be content with what you have.
                           -- Doris Mortman
 Job cpu time:       0 days  0 hours  0 minutes 34.7 seconds.
 Elapsed time:       0 days  0 hours  0 minutes 34.5 seconds.
 File lengths (MBytes):  RWF=     10 Int=      0 D2E=      0 Chk=      2 Scr=      1
 Normal termination of Gaussian 16 at Tue Jun 14 20:20:51 2022.
