 Entering Gaussian System, Link 0=g16
 AtFile(1): pcseg2.gbs
            -H     0
            S   4   1.00
                  0.754732D+02           0.427821D-02
                  0.113575D+02           0.328672D-01
                  0.260081D+01           0.159578D+00
                  0.735503D+00           0.500000D+00
            S   1   1.00
                  0.231761D+00           1.0000000
            S   1   1.00
                  0.741675D-01           1.0000000
            P   1   1.00
                  0.160000D+01           1.0000000
            P   1   1.00
                  0.450000D+00           1.0000000
            D   1   1.00
                  0.125000D+01           1.0000000
            ****
            -C     0
            S   7   1.00
                  0.731999D+04           0.695369D-03
                  0.109818D+04           0.537138D-02
                  0.250014D+03           0.274734D-01
                  0.707586D+02           0.105078D+00
                  0.228595D+02           0.291262D+00
                  0.803936D+01           0.500000D+00
                  0.289309D+01           0.362224D+00
            S   2   1.00
                  0.521640D+01          -0.957844D-01
                  0.556124D+00           0.500000D+00
            S   1   1.00
                  0.228813D+00           1.0000000
            S   1   1.00
                  0.936338D-01           1.0000000
            P   4   1.00
                  0.339855D+02           0.818395D-02
                  0.772957D+01           0.586921D-01
                  0.224954D+01           0.222514D+00
                  0.767681D+00           0.500000D+00
            P   1   1.00
                  0.263283D+00           1.0000000
            P   1   1.00
                  0.848744D-01           1.0000000
            D   1   1.00
                  0.140000D+01           1.0000000
            D   1   1.00
                  0.450000D+00           1.0000000
            F   1   1.00
                  0.950000D+00           1.0000000
            ****
            -O     0
            S   7   1.00
                  0.135887D+05           0.665492D-03
                  0.203847D+04           0.514222D-02
                  0.464041D+03           0.263472D-01
                  0.131339D+03           0.101500D+00
                  0.425340D+02           0.285877D+00
                  0.150429D+02           0.500000D+00
                  0.546616D+01           0.368211D+00
            S   2   1.00
                  0.100915D+02          -0.100084D+00
                  0.110429D+01           0.500000D+00
            S   1   1.00
                  0.448082D+00           1.0000000
            S   1   1.00
                  0.175325D+00           1.0000000
            P   4   1.00
                  0.608220D+02           0.908253D-02
                  0.140332D+02           0.645878D-01
                  0.418244D+01           0.241502D+00
                  0.142490D+01           0.500000D+00
            P   1   1.00
                  0.478741D+00           1.0000000
            P   1   1.00
                  0.146257D+00           1.0000000
            D   1   1.00
                  0.220000D+01           1.0000000
            D   1   1.00
                  0.650000D+00           1.0000000
            F   1   1.00
                  0.110000D+01           1.0000000
            ****
            -N     0
            S   7   1.00
                  0.101643D+05           0.682757D-03
                  0.152481D+04           0.527488D-02
                  0.347119D+03           0.270037D-01
                  0.982389D+02           0.103673D+00
                  0.317799D+02           0.289575D+00
                  0.112240D+02           0.500000D+00
                  0.406611D+01           0.364621D+00
            S   2   1.00
                  0.747898D+01          -0.975681D-01
                  0.805040D+00           0.500000D+00
            S   1   1.00
                  0.324626D+00           1.0000000
            S   1   1.00
                  0.128132D+00           1.0000000
            P   4   1.00
                  0.482704D+02           0.829547D-02
                  0.110815D+02           0.596223D-01
                  0.326643D+01           0.227889D+00
                  0.111680D+01           0.500000D+00
            P   1   1.00
                  0.382049D+00           1.0000000
            P   1   1.00
                  0.121222D+00           1.0000000
            D   1   1.00
                  0.180000D+01           1.0000000
            D   1   1.00
                  0.550000D+00           1.0000000
            F   1   1.00
                  0.102000D+01           1.0000000
            ****
            -F     0
            S   7   1.00
                  0.174507D+05           0.655972D-03
                  0.261768D+04           0.506944D-02
                  0.595857D+03           0.259899D-01
                  0.168651D+03           0.100353D+00
                  0.546654D+02           0.284095D+00
                  0.193717D+02           0.500000D+00
                  0.706202D+01           0.370721D+00
            S   2   1.00
                  0.131197D+02          -0.101997D+00
                  0.145046D+01           0.500000D+00
            S   1   1.00
                  0.588255D+00           1.0000000
            S   1   1.00
                  0.227960D+00           1.0000000
            P   4   1.00
                  0.779407D+02           0.931135D-02
                  0.180425D+02           0.663964D-01
                  0.542342D+01           0.246386D+00
                  0.184876D+01           0.500000D+00
            P   1   1.00
                  0.617455D+00           1.0000000
            P   1   1.00
                  0.185496D+00           1.0000000
            D   1   1.00
                  0.280000D+01           1.0000000
            D   1   1.00
                  0.800000D+00           1.0000000
            F   1   1.00
                  0.120000D+01           1.0000000
            ****
            -Cl     0
            S   8   1.00
                  0.154272D+06           0.222473D-03
                  0.231232D+05           0.172590D-02
                  0.526257D+04           0.899286D-02
                  0.148995D+04           0.367724D-01
                  0.485417D+03           0.121446D+00
                  0.174634D+03           0.304148D+00
                  0.672393D+02           0.500000D+00
                  0.265780D+02           0.360252D+00
            S   3   1.00
                  0.131826D+03          -0.531330D-01
                  0.400703D+02          -0.233346D+00
                  0.789448D+01           0.500000D+00
            S   2   1.00
                  0.427711D+01           0.500000D+00
                  0.196233D+01           0.370517D+00
            S   1   1.00
                  0.520793D+00           1.0000000
            S   1   1.00
                  0.181633D+00           1.0000000
            P   7   1.00
                  0.124440D+04           0.988206D-03
                  0.295109D+03           0.829674D-02
                  0.947224D+02           0.430906D-01
                  0.352588D+02           0.148443D+00
                  0.144211D+02           0.344744D+00
                  0.610371D+01           0.500000D+00
                  0.258886D+01           0.348278D+00
            P   2   1.00
                  0.109447D+02          -0.196768D-01
                  0.104413D+01           0.500000D+00
            P   1   1.00
                  0.376184D+00           1.0000000
            P   1   1.00
                  0.120613D+00           1.0000000
            D   1   1.00
                  0.231000D+01           1.0000000
            D   1   1.00
                  0.520000D+00           1.0000000
            F   1   1.00
                  0.720000D+00           1.0000000
            ****
            -S     0
            S   8   1.00
                  0.134700D+06           0.226231D-03
                  0.201904D+05           0.175488D-02
                  0.459528D+04           0.914190D-02
                  0.130109D+04           0.373551D-01
                  0.423902D+03           0.123121D+00
                  0.152485D+03           0.306801D+00
                  0.586925D+02           0.500000D+00
                  0.231461D+02           0.354358D+00
            S   3   1.00
                  0.116327D+03          -0.491772D-01
                  0.352841D+02          -0.215962D+00
                  0.677831D+01           0.500000D+00
            S   2   1.00
                  0.360404D+01           0.500000D+00
                  0.164871D+01           0.366278D+00
            S   1   1.00
                  0.421821D+00           1.0000000
            S   1   1.00
                  0.147554D+00           1.0000000
            P   7   1.00
                  0.104863D+04           0.105273D-02
                  0.248717D+03           0.879338D-02
                  0.797887D+02           0.453358D-01
                  0.296023D+02           0.154476D+00
                  0.120627D+02           0.352366D+00
                  0.507628D+01           0.500000D+00
                  0.213375D+01           0.346429D+00
            P   2   1.00
                  0.928958D+01          -0.185932D-01
                  0.837819D+00           0.500000D+00
            P   1   1.00
                  0.301495D+00           1.0000000
            P   1   1.00
                  0.974740D-01           1.0000000
            D   1   1.00
                  0.210000D+01           1.0000000
            D   1   1.00
                  0.480000D+00           1.0000000
            F   1   1.00
                  0.660000D+00           1.0000000
            ****
            -Br     0
            S    10   1.00
                  0.233625D+07           0.532336D-04
                  0.349961D+06           0.413715D-03
                  0.796444D+05           0.217123D-02
                  0.225555D+05           0.910109D-02
                  0.735546D+04           0.323789D-01
                  0.265352D+04           0.988755D-01
                  0.103517D+04           0.248138D+00
                  0.422205D+03           0.474328D+00
                  0.180035D+03           0.500000D+00
                  0.793308D+02           0.187769D+00
            S    4   1.00
                  0.620834D+03          -0.226511D-01
                  0.190829D+03          -0.109497D+00
                  0.312505D+02           0.500000D+00
                  0.135270D+02           0.492812D+00
            S    2   1.00
                  0.216097D+02          -0.165418D+00
                  0.372566D+01           0.500000D+00
            S    1   1.00
                  0.169770D+01           1.0000000
            S    1   1.00
                  0.489332D+00           1.0000000
            S    1   1.00
                  0.175712D+00           1.0000000
            P    8   1.00
                  0.960829D+04           0.478974D-03
                  0.227618D+04           0.417853D-02
                  0.736723D+03           0.229315D-01
                  0.281579D+03           0.892653D-01
                  0.118395D+03           0.255288D+00
                  0.527481D+02           0.479074D+00
                  0.245098D+02           0.500000D+00
                  0.112009D+02           0.200944D+00
            P    4   1.00
                  0.587849D+02          -0.189674D-01
                  0.918962D+01           0.264104D+00
                  0.413895D+01           0.500000D+00
                  0.184225D+01           0.319316D+00
            P    1   1.00
                  0.713862D+00           1.0000000
            P    1   1.00
                  0.274232D+00           1.0000000
            P    1   1.00
                  0.944411D-01           1.0000000
            D    7   1.00
                  0.398470D+03           0.204066D-02
                  0.118967D+03           0.175171D-01
                  0.450197D+02           0.829708D-01
                  0.190320D+02           0.236284D+00
                  0.855686D+01           0.428468D+00
                  0.382950D+01           0.500000D+00
                  0.166291D+01           0.349360D+00
            D    1   1.00
                  0.672953D+00           1.0000000
            D    1   1.00
                  0.252000D+00           1.0000000
            F    1   1.00
                  0.530000D+00           1.0000000
            ****
            -Si     0
            S    8   1.00
                  0.996133D+05           0.235546D-03
                  0.149311D+05           0.182707D-02
                  0.339820D+04           0.951425D-02
                  0.962140D+03           0.388172D-01
                  0.313430D+03           0.127328D+00
                  0.112683D+03           0.313522D+00
                  0.433372D+02           0.500000D+00
                  0.170029D+02           0.340347D+00
            S    3   1.00
                  0.884208D+02          -0.404451D-01
                  0.266756D+02          -0.178059D+00
                  0.479640D+01           0.500000D+00
            S    2   1.00
                  0.239385D+01           0.500000D+00
                  0.108333D+01           0.338016D+00
            S    1   1.00
                  0.252420D+00           1.0000000
            S    1   1.00
                  0.891210D-01           1.0000000
            P    7   1.00
                  0.709901D+03           0.123028D-02
                  0.168426D+03           0.101366D-01
                  0.539946D+02           0.511840D-01
                  0.198646D+02           0.169967D+00
                  0.801369D+01           0.370717D+00
                  0.331870D+01           0.500000D+00
                  0.136112D+01           0.344128D+00
            P    2   1.00
                  0.622158D+01          -0.166609D-01
                  0.503049D+00           0.500000D+00
            P    1   1.00
                  0.179848D+00           1.0000000
            P    1   1.00
                  0.591912D-01           1.0000000
            D    1   1.00
                  0.168000D+01           1.0000000
            D    1   1.00
                  0.380000D+00           1.0000000
            F    1   1.00
                  0.540000D+00           1.0000000
            ****
            -P     0
            S    8   1.00
                  0.116416D+06           0.230715D-03
                  0.174500D+05           0.178960D-02
                  0.397149D+04           0.932116D-02
                  0.112447D+04           0.380591D-01
                  0.366347D+03           0.125148D+00
                  0.131757D+03           0.310022D+00
                  0.506988D+02           0.500000D+00
                  0.199436D+02           0.347528D+00
            S    3   1.00
                  0.101878D+03          -0.446755D-01
                  0.308249D+02          -0.196376D+00
                  0.573688D+01           0.500000D+00
            S    2   1.00
                  0.296868D+01           0.500000D+00
                  0.135315D+01           0.355098D+00
            S    1   1.00
                  0.332196D+00           1.0000000
            S    1   1.00
                  0.116229D+00           1.0000000
            P    7   1.00
                  0.873928D+03           0.112375D-02
                  0.207298D+03           0.933330D-02
                  0.664628D+02           0.477213D-01
                  0.245665D+02           0.160733D+00
                  0.996820D+01           0.359760D+00
                  0.416536D+01           0.500000D+00
                  0.173022D+01           0.346593D+00
            P    2   1.00
                  0.772530D+01          -0.175718D-01
                  0.657252D+00           0.500000D+00
            P    1   1.00
                  0.239903D+00           1.0000000
            P    1   1.00
                  0.800988D-01           1.0000000
            D    1   1.00
                  0.189000D+01           1.0000000
            D    1   1.00
                  0.430000D+00           1.0000000
            F    1   1.00
                  0.600000D+00           1.0000000
            ****
            
 Initial command:
 /usr/local/apps/g16_b01_avx/g16/l1.exe "/wrk/irikura/Gau-479185.inp" -scrdir="/wrk/irikura/"
 Entering Link 1 = /usr/local/apps/g16_b01_avx/g16/l1.exe PID=    479187.
  
 Copyright (c) 1988-2017, Gaussian, Inc.  All Rights Reserved.
  
 This is part of the Gaussian(R) 16 program.  It is based on
 the Gaussian(R) 09 system (copyright 2009, Gaussian, Inc.),
 the Gaussian(R) 03 system (copyright 2003, Gaussian, Inc.),
 the Gaussian(R) 98 system (copyright 1998, Gaussian, Inc.),
 the Gaussian(R) 94 system (copyright 1995, Gaussian, Inc.),
 the Gaussian 92(TM) system (copyright 1992, Gaussian, Inc.),
 the Gaussian 90(TM) system (copyright 1990, Gaussian, Inc.),
 the Gaussian 88(TM) system (copyright 1988, Gaussian, Inc.),
 the Gaussian 86(TM) system (copyright 1986, Carnegie Mellon
 University), and the Gaussian 82(TM) system (copyright 1983,
 Carnegie Mellon University). Gaussian is a federally registered
 trademark of Gaussian, Inc.
  
 This software contains proprietary and confidential information,
 including trade secrets, belonging to Gaussian, Inc.
  
 This software is provided under written license and may be
 used, copied, transmitted, or stored only in accord with that
 written license.
  
 The following legend is applicable only to US Government
 contracts under FAR:
  
                    RESTRICTED RIGHTS LEGEND
  
 Use, reproduction and disclosure by the US Government is
 subject to restrictions as set forth in subparagraphs (a)
 and (c) of the Commercial Computer Software - Restricted
 Rights clause in FAR 52.227-19.
  
 Gaussian, Inc.
 340 Quinnipiac St., Bldg. 40, Wallingford CT 06492
  
  
 ---------------------------------------------------------------
 Warning -- This program may not be used in any manner that
 competes with the business of Gaussian, Inc. or will provide
 assistance to any competitor of Gaussian, Inc.  The licensee
 of this program is prohibited from giving any competitor of
 Gaussian, Inc. access to this program.  By using this program,
 the user acknowledges that Gaussian, Inc. is engaged in the
 business of creating and licensing software in the field of
 computational chemistry and represents and warrants to the
 licensee that it is not a competitor of Gaussian, Inc. and that
 it will not use this program in any manner prohibited above.
 ---------------------------------------------------------------
  

 Cite this work as:
 Gaussian 16, Revision B.01,
 M. J. Frisch, G. W. Trucks, H. B. Schlegel, G. E. Scuseria, 
 M. A. Robb, J. R. Cheeseman, G. Scalmani, V. Barone, 
 G. A. Petersson, H. Nakatsuji, X. Li, M. Caricato, A. V. Marenich, 
 J. Bloino, B. G. Janesko, R. Gomperts, B. Mennucci, H. P. Hratchian, 
 J. V. Ortiz, A. F. Izmaylov, J. L. Sonnenberg, D. Williams-Young, 
 F. Ding, F. Lipparini, F. Egidi, J. Goings, B. Peng, A. Petrone, 
 T. Henderson, D. Ranasinghe, V. G. Zakrzewski, J. Gao, N. Rega, 
 G. Zheng, W. Liang, M. Hada, M. Ehara, K. Toyota, R. Fukuda, 
 J. Hasegawa, M. Ishida, T. Nakajima, Y. Honda, O. Kitao, H. Nakai, 
 T. Vreven, K. Throssell, J. A. Montgomery, Jr., J. E. Peralta, 
 F. Ogliaro, M. J. Bearpark, J. J. Heyd, E. N. Brothers, K. N. Kudin, 
 V. N. Staroverov, T. A. Keith, R. Kobayashi, J. Normand, 
 K. Raghavachari, A. P. Rendell, J. C. Burant, S. S. Iyengar, 
 J. Tomasi, M. Cossi, J. M. Millam, M. Klene, C. Adamo, R. Cammi, 
 J. W. Ochterski, R. L. Martin, K. Morokuma, O. Farkas, 
 J. B. Foresman, and D. J. Fox, Gaussian, Inc., Wallingford CT, 2016.
 
 ******************************************
 Gaussian 16:  ES64L-G16RevB.01 20-Dec-2017
                30-Sep-2023 
 ******************************************
 %chk=ho2.chk
 %mem=500mw
 %nprocs=4
 Will use up to    4 processors via shared memory.
 ---------------------------------------
 # b3lyp/gen opt freq CPHF(Grid=OneStep)
 ---------------------------------------
 1/18=20,19=15,26=3,38=1/1,3;
 2/9=110,12=2,17=6,18=5,40=1/2;
 3/5=7,11=2,25=1,30=1,71=1,74=-5/1,2,3;
 4//1;
 5/5=2,38=5/2;
 6/7=2,8=2,9=2,10=2,28=1/1;
 7//1,2,3,16;
 1/18=20,19=15,26=3/3(2);
 2/9=110/2;
 99//99;
 2/9=110/2;
 3/5=7,6=1,11=2,25=1,30=1,71=1,74=-5,82=7/1,2,3;
 4/5=5,16=3,69=1/1;
 5/5=2,38=5/2;
 7//1,2,3,16;
 1/18=20,19=15,26=3/3(-5);
 2/9=110/2;
 6/7=2,8=2,9=2,10=2,19=2,28=1/1;
 99/9=1/99;
 ------------------
 HO2, B3LYP/pcseg-2
 ------------------
 Symbolic Z-matrix:
 Charge =  0 Multiplicity = 2
 O                     0.05526  -0.60922   0. 
 H                    -0.88408  -0.86836   0. 
 O                     0.05526   0.71777   0. 
 

 GradGradGradGradGradGradGradGradGradGradGradGradGradGradGradGradGradGrad
 Berny optimization.
 Initialization pass.
                           ----------------------------
                           !    Initial Parameters    !
                           ! (Angstroms and Degrees)  !
 --------------------------                            --------------------------
 ! Name  Definition              Value          Derivative Info.                !
 --------------------------------------------------------------------------------
 ! R1    R(1,2)                  0.9744         estimate D2E/DX2                !
 ! R2    R(1,3)                  1.327          estimate D2E/DX2                !
 ! A1    A(2,1,3)              105.4226         estimate D2E/DX2                !
 --------------------------------------------------------------------------------
 Trust Radius=3.00D-01 FncErr=1.00D-07 GrdErr=1.00D-06 EigMax=2.50D+02 EigMin=1.00D-04
 Number of steps in this run=     20 maximum allowed number of steps=    100.
 GradGradGradGradGradGradGradGradGradGradGradGradGradGradGradGradGradGrad

                          Input orientation:                          
 ---------------------------------------------------------------------
 Center     Atomic      Atomic             Coordinates (Angstroms)
 Number     Number       Type             X           Y           Z
 ---------------------------------------------------------------------
      1          8           0        0.055255   -0.609221    0.000000
      2          1           0       -0.884080   -0.868356    0.000000
      3          8           0        0.055255    0.717765    0.000000
 ---------------------------------------------------------------------
                    Distance matrix (angstroms):
                    1          2          3
     1  O    0.000000
     2  H    0.974424   0.000000
     3  O    1.326986   1.843402   0.000000
 Stoichiometry    HO2(2)
 Framework group  CS[SG(HO2)]
 Deg. of freedom     3
 Full point group                 CS      NOp   2
 Largest Abelian subgroup         CS      NOp   2
 Largest concise Abelian subgroup C1      NOp   1
                         Standard orientation:                         
 ---------------------------------------------------------------------
 Center     Atomic      Atomic             Coordinates (Angstroms)
 Number     Number       Type             X           Y           Z
 ---------------------------------------------------------------------
      1          8           0        0.055255   -0.609221    0.000000
      2          1           0       -0.884080   -0.868356    0.000000
      3          8           0        0.055255    0.717765    0.000000
 ---------------------------------------------------------------------
 Rotational constants (GHZ):         622.9598643          33.7702840          32.0337533
 General basis read from cards:  (5D, 7F)
 There are    59 symmetry adapted cartesian basis functions of A'  symmetry.
 There are    26 symmetry adapted cartesian basis functions of A"  symmetry.
 There are    50 symmetry adapted basis functions of A'  symmetry.
 There are    24 symmetry adapted basis functions of A"  symmetry.
    74 basis functions,   120 primitive gaussians,    85 cartesian basis functions
     9 alpha electrons        8 beta electrons
       nuclear repulsion energy        32.1630639520 Hartrees.
 NAtoms=    3 NActive=    3 NUniq=    3 SFac= 1.00D+00 NAtFMM=   60 NAOKFM=F Big=F
 Integral buffers will be    131072 words long.
 Raffenetti 2 integral format.
 Two-electron integral symmetry is turned on.
 One-electron integrals computed using PRISM.
 NBasis=    74 RedAO= T EigKep=  2.41D-03  NBF=    50    24
 NBsUse=    74 1.00D-06 EigRej= -1.00D+00 NBFU=    50    24
 ExpMin= 7.42D-02 ExpMax= 1.36D+04 ExpMxC= 4.64D+02 IAcc=3 IRadAn=         5 AccDes= 0.00D+00
 Harris functional with IExCor=  402 and IRadAn=       5 diagonalized for initial guess.
 HarFok:  IExCor=  402 AccDes= 0.00D+00 IRadAn=         5 IDoV= 1 UseB2=F ITyADJ=14
 ICtDFT=  3500011 ScaDFX=  1.000000  1.000000  1.000000  1.000000
 FoFCou: FMM=F IPFlag=           0 FMFlag=      100000 FMFlg1=           0
         NFxFlg=           0 DoJE=T BraDBF=F KetDBF=T FulRan=T
         wScrn=  0.000000 ICntrl=       500 IOpCl=  0 I1Cent=   200000004 NGrid=           0
         NMat0=    1 NMatS0=      1 NMatT0=    0 NMatD0=    1 NMtDS0=    0 NMtDT0=    0
 Petite list used in FoFCou.
 Initial guess orbital symmetries:
 Alpha Orbitals:
       Occupied  (A') (A') (A') (A') (A') (A') (A") (A') (A")
       Virtual   (A') (A') (A') (A') (A') (A") (A') (A') (A") (A')
                 (A') (A") (A') (A') (A") (A') (A") (A') (A') (A')
                 (A") (A') (A") (A') (A') (A") (A') (A") (A') (A')
                 (A') (A") (A') (A') (A") (A') (A") (A') (A') (A")
                 (A") (A') (A') (A') (A') (A") (A') (A") (A') (A")
                 (A') (A") (A') (A') (A") (A") (A") (A') (A') (A")
                 (A') (A') (A') (A') (A')
 Beta  Orbitals:
       Occupied  (A') (A') (A') (A') (A') (A') (A") (A')
       Virtual   (A") (A') (A') (A') (A') (A') (A") (A') (A') (A")
                 (A') (A') (A") (A') (A') (A") (A') (A") (A') (A')
                 (A') (A") (A') (A") (A') (A') (A") (A') (A") (A')
                 (A') (A') (A") (A') (A') (A") (A') (A") (A') (A')
                 (A") (A") (A') (A') (A') (A') (A") (A') (A") (A')
                 (A") (A') (A") (A') (A') (A") (A") (A") (A') (A')
                 (A") (A') (A') (A') (A') (A')
 The electronic state of the initial guess is 2-A".
 Initial guess <Sx>= 0.0000 <Sy>= 0.0000 <Sz>= 0.5000 <S**2>= 0.7500 S= 0.5000
 Keep R1 and R2 ints in memory in symmetry-blocked form, NReq=7570190.
 Requested convergence on RMS density matrix=1.00D-08 within 128 cycles.
 Requested convergence on MAX density matrix=1.00D-06.
 Requested convergence on             energy=1.00D-06.
 No special actions if energy rises.
 Integral accuracy reduced to 1.0D-05 until final iterations.
 Initial convergence to 1.0D-05 achieved.  Increase integral accuracy.
 SCF Done:  E(UB3LYP) =  -150.975992917     A.U. after   14 cycles
            NFock= 14  Conv=0.76D-08     -V/T= 2.0027
 <Sx>= 0.0000 <Sy>= 0.0000 <Sz>= 0.5000 <S**2>= 0.7539 S= 0.5020
 <L.S>=  0.00000000000    
 Annihilation of the first spin contaminant:
 S**2 before annihilation     0.7539,   after     0.7500

 **********************************************************************

            Population analysis using the SCF Density.

 **********************************************************************

 Orbital symmetries:
 Alpha Orbitals:
       Occupied  (A') (A') (A') (A') (A') (A") (A') (A") (A')
       Virtual   (A') (A') (A') (A') (A") (A') (A') (A") (A') (A')
                 (A') (A") (A') (A') (A") (A') (A") (A') (A') (A')
                 (A") (A') (A") (A') (A') (A") (A') (A") (A') (A')
                 (A') (A") (A') (A') (A") (A') (A") (A') (A') (A")
                 (A") (A') (A') (A') (A") (A') (A') (A") (A') (A")
                 (A') (A") (A') (A") (A') (A") (A") (A') (A') (A")
                 (A') (A') (A') (A') (A')
 Beta  Orbitals:
       Occupied  (A') (A') (A') (A') (A') (A') (A") (A')
       Virtual   (A") (A') (A') (A') (A') (A") (A') (A') (A') (A")
                 (A') (A') (A") (A') (A') (A") (A') (A") (A') (A')
                 (A') (A") (A') (A') (A") (A') (A") (A') (A') (A")
                 (A') (A') (A") (A') (A') (A") (A') (A") (A') (A')
                 (A") (A") (A') (A') (A') (A") (A') (A') (A") (A')
                 (A") (A') (A") (A') (A") (A') (A") (A") (A') (A')
                 (A') (A") (A') (A') (A') (A')
 The electronic state is 2-A".
 Alpha  occ. eigenvalues --  -19.25959 -19.22018  -1.21010  -0.88484  -0.57701
 Alpha  occ. eigenvalues --   -0.50837  -0.49399  -0.31730  -0.31130
 Alpha virt. eigenvalues --   -0.01079   0.07264   0.25382   0.28993   0.29378
 Alpha virt. eigenvalues --    0.31552   0.35787   0.38530   0.39102   0.48695
 Alpha virt. eigenvalues --    0.70539   0.75699   0.81108   1.08795   1.24630
 Alpha virt. eigenvalues --    1.28365   1.40853   1.49861   1.61109   1.73812
 Alpha virt. eigenvalues --    1.77922   1.83009   1.95591   1.98113   2.07520
 Alpha virt. eigenvalues --    2.10002   2.32536   2.42506   2.45895   2.70982
 Alpha virt. eigenvalues --    2.94410   3.37999   3.45226   3.49128   3.57037
 Alpha virt. eigenvalues --    3.67757   3.76239   3.81266   3.93134   3.94469
 Alpha virt. eigenvalues --    4.03926   4.07927   4.19702   4.25615   4.41639
 Alpha virt. eigenvalues --    4.42398   4.63163   4.80501   4.82903   5.39868
 Alpha virt. eigenvalues --    5.48187   5.91137   5.94806   5.98856   6.00413
 Alpha virt. eigenvalues --    6.09765   6.16356   6.19740   6.29091   6.54328
 Alpha virt. eigenvalues --    6.56356   6.61991   7.04445   7.24339  11.35479
  Beta  occ. eigenvalues --  -19.25051 -19.19867  -1.18317  -0.84311  -0.56205
  Beta  occ. eigenvalues --   -0.47892  -0.42941  -0.29261
  Beta virt. eigenvalues --   -0.13411  -0.00831   0.08997   0.25590   0.29538
  Beta virt. eigenvalues --    0.31168   0.32041   0.36063   0.39456   0.41302
  Beta virt. eigenvalues --    0.49173   0.71427   0.76157   0.81175   1.09025
  Beta virt. eigenvalues --    1.27249   1.29554   1.43906   1.50644   1.63440
  Beta virt. eigenvalues --    1.74907   1.79854   1.84485   1.99041   1.99411
  Beta virt. eigenvalues --    2.08407   2.16057   2.33552   2.47005   2.47681
  Beta virt. eigenvalues --    2.72343   2.96505   3.38970   3.45934   3.50564
  Beta virt. eigenvalues --    3.57994   3.68482   3.78960   3.82343   3.96421
  Beta virt. eigenvalues --    3.98316   4.05449   4.09432   4.21020   4.27546
  Beta virt. eigenvalues --    4.42047   4.43407   4.64116   4.82034   4.83207
  Beta virt. eigenvalues --    5.43668   5.48988   5.96097   5.97208   6.01410
  Beta virt. eigenvalues --    6.07226   6.14549   6.20271   6.20595   6.30721
  Beta virt. eigenvalues --    6.56952   6.58676   6.63949   7.05523   7.25010
  Beta virt. eigenvalues --   11.36610
          Condensed to atoms (all electrons):
               1          2          3
     1  O    7.721845   0.307856   0.035131
     2  H    0.307856   0.503436  -0.040931
     3  O    0.035131  -0.040931   8.170608
          Atomic-Atomic Spin Densities.
               1          2          3
     1  O    0.400439   0.004092  -0.140558
     2  H    0.004092  -0.010416  -0.000037
     3  O   -0.140558  -0.000037   0.882982
 Mulliken charges and spin densities:
               1          2
     1  O   -0.064832   0.263973
     2  H    0.229640  -0.006360
     3  O   -0.164808   0.742387
 Sum of Mulliken charges =  -0.00000   1.00000
 Mulliken charges and spin densities with hydrogens summed into heavy atoms:
               1          2
     1  O    0.164808   0.257613
     3  O   -0.164808   0.742387
 Electronic spatial extent (au):  <R**2>=             54.9422
 Charge=             -0.0000 electrons
 Dipole moment (field-independent basis, Debye):
    X=             -1.7499    Y=             -1.4651    Z=              0.0000  Tot=              2.2822
 Quadrupole moment (field-independent basis, Debye-Ang):
   XX=            -10.0482   YY=            -11.1067   ZZ=            -11.0755
   XY=              1.6650   XZ=              0.0000   YZ=              0.0000
 Traceless Quadrupole moment (field-independent basis, Debye-Ang):
   XX=              0.6953   YY=             -0.3633   ZZ=             -0.3320
   XY=              1.6650   XZ=              0.0000   YZ=              0.0000
 Octapole moment (field-independent basis, Debye-Ang**2):
  XXX=             -2.2162  YYY=             -1.8478  ZZZ=              0.0000  XYY=             -1.7497
  XXY=             -2.0840  XXZ=              0.0000  XZZ=             -0.2299  YZZ=              0.0373
  YYZ=              0.0000  XYZ=              0.0000
 Hexadecapole moment (field-independent basis, Debye-Ang**3):
 XXXX=             -9.9268 YYYY=            -37.6006 ZZZZ=             -8.6550 XXXY=              0.2194
 XXXZ=              0.0000 YYYX=              0.5015 YYYZ=              0.0000 ZZZX=              0.0000
 ZZZY=              0.0000 XXYY=             -7.9714 XXZZ=             -3.3548 YYZZ=             -8.1649
 XXYZ=              0.0000 YYXZ=              0.0000 ZZXY=             -0.2965
 N-N= 3.216306395203D+01 E-N=-4.217031751935D+02  KE= 1.505728074321D+02
 Symmetry A'   KE= 1.431571039452D+02
 Symmetry A"   KE= 7.415703486923D+00
 Symmetry A'   SP= 4.729963267575D-16
 Symmetry A"   SP= 1.000000000000D+00
                          Isotropic Fermi Contact Couplings
        Atom                 a.u.       MegaHertz       Gauss      10(-4) cm-1
     1  O(17)              0.08291     -50.25936     -17.93379     -16.76472
     2  H(1)              -0.00567     -25.32719      -9.03737      -8.44824
     3  O(17)              0.17884    -108.41294     -38.68443     -36.16266
 --------------------------------------------------------
       Center         ----  Spin Dipole Couplings  ----
                      3XX-RR        3YY-RR        3ZZ-RR
 --------------------------------------------------------
     1   Atom       -0.738698     -0.785228      1.523925
     2   Atom        0.046376     -0.022698     -0.023678
     3   Atom       -1.672405     -1.694961      3.367366
 --------------------------------------------------------
                        XY            XZ            YZ
 --------------------------------------------------------
     1   Atom        0.026512      0.000000      0.000000
     2   Atom        0.040242      0.000000      0.000000
     3   Atom       -0.007586      0.000000      0.000000
 --------------------------------------------------------


 ---------------------------------------------------------------------------------
              Anisotropic Spin Dipole Couplings in Principal Axis System
 ---------------------------------------------------------------------------------

       Atom             a.u.   MegaHertz   Gauss  10(-4) cm-1        Axes

              Baa    -0.7972    57.687    20.584    19.242 -0.4126  0.9109  0.0000
     1 O(17)  Bbb    -0.7267    52.583    18.763    17.540  0.9109  0.4126  0.0000
              Bcc     1.5239  -110.270   -39.347   -36.782  0.0000  0.0000  1.0000
 
              Baa    -0.0412   -21.978    -7.842    -7.331 -0.4176  0.9086 -0.0000
     2 H(1)   Bbb    -0.0237   -12.633    -4.508    -4.214  0.0000  0.0000  1.0000
              Bcc     0.0649    34.611    12.350    11.545  0.9086  0.4176  0.0000
 
              Baa    -1.6973   122.814    43.823    40.966  0.2918  0.9565  0.0000
     3 O(17)  Bbb    -1.6701   120.847    43.121    40.310  0.9565 -0.2918 -0.0000
              Bcc     3.3674  -243.660   -86.944   -81.276  0.0000  0.0000  1.0000
 

 ---------------------------------------------------------------------------------

 Calling FoFJK, ICntrl=      2127 FMM=F ISym2X=1 I1Cent= 0 IOpClX= 1 NMat=1 NMatS=1 NMatT=0.
 ***** Axes restored to original set *****
 -------------------------------------------------------------------
 Center     Atomic                   Forces (Hartrees/Bohr)
 Number     Number              X              Y              Z
 -------------------------------------------------------------------
      1        8           0.000279151   -0.000289083   -0.000000000
      2        1          -0.000276838   -0.000072882   -0.000000000
      3        8          -0.000002314    0.000361965   -0.000000000
 -------------------------------------------------------------------
 Cartesian Forces:  Max     0.000361965 RMS     0.000203980

 GradGradGradGradGradGradGradGradGradGradGradGradGradGradGradGradGradGrad
 Berny optimization.
 FormGI is forming the generalized inverse of G from B-inverse, IUseBI=4.
 Internal  Forces:  Max     0.000361997 RMS     0.000266454
 Search for a local minimum.
 Step number   1 out of a maximum of   20
 All quantities printed in internal units (Hartrees-Bohrs-Radians)
 Mixed Optimization -- En-DIIS/RFO-DIIS
 Second derivative matrix not updated -- first step.
 The second derivative matrix:
                          R1        R2        A1
           R1           0.52483
           R2           0.00000   0.60223
           A1           0.00000   0.00000   0.16000
 ITU=  0
     Eigenvalues ---    0.16000   0.52483   0.60223
 RFO step:  Lambda=-3.73899683D-07 EMin= 1.60000000D-01
 Linear search not attempted -- first point.
 Iteration  1 RMS(Cart)=  0.00039534 RMS(Int)=  0.00000001
 Iteration  2 RMS(Cart)=  0.00000001 RMS(Int)=  0.00000000
 ClnCor:  largest displacement from symmetrization is 0.00D+00 for atom     0.
 Variable       Old X    -DE/DX   Delta X   Delta X   Delta X     New X
                                 (Linear)    (Quad)   (Total)
    R1        1.84139   0.00029   0.00000   0.00055   0.00055   1.84194
    R2        2.50764   0.00036   0.00000   0.00060   0.00060   2.50824
    A1        1.83997  -0.00001   0.00000  -0.00004  -0.00004   1.83993
         Item               Value     Threshold  Converged?
 Maximum Force            0.000362     0.000450     YES
 RMS     Force            0.000266     0.000300     YES
 Maximum Displacement     0.000442     0.001800     YES
 RMS     Displacement     0.000395     0.001200     YES
 Predicted change in Energy=-1.869498D-07
 Optimization completed.
    -- Stationary point found.
                           ----------------------------
                           !   Optimized Parameters   !
                           ! (Angstroms and Degrees)  !
 --------------------------                            --------------------------
 ! Name  Definition              Value          Derivative Info.                !
 --------------------------------------------------------------------------------
 ! R1    R(1,2)                  0.9744         -DE/DX =    0.0003              !
 ! R2    R(1,3)                  1.327          -DE/DX =    0.0004              !
 ! A1    A(2,1,3)              105.4226         -DE/DX =    0.0                 !
 --------------------------------------------------------------------------------
 GradGradGradGradGradGradGradGradGradGradGradGradGradGradGradGradGradGrad

                          Input orientation:                          
 ---------------------------------------------------------------------
 Center     Atomic      Atomic             Coordinates (Angstroms)
 Number     Number       Type             X           Y           Z
 ---------------------------------------------------------------------
      1          8           0        0.055255   -0.609221    0.000000
      2          1           0       -0.884080   -0.868356    0.000000
      3          8           0        0.055255    0.717765    0.000000
 ---------------------------------------------------------------------
                    Distance matrix (angstroms):
                    1          2          3
     1  O    0.000000
     2  H    0.974424   0.000000
     3  O    1.326986   1.843402   0.000000
 Stoichiometry    HO2(2)
 Framework group  CS[SG(HO2)]
 Deg. of freedom     3
 Full point group                 CS      NOp   2
 Largest Abelian subgroup         CS      NOp   2
 Largest concise Abelian subgroup C1      NOp   1
                         Standard orientation:                         
 ---------------------------------------------------------------------
 Center     Atomic      Atomic             Coordinates (Angstroms)
 Number     Number       Type             X           Y           Z
 ---------------------------------------------------------------------
      1          8           0        0.055255   -0.609221    0.000000
      2          1           0       -0.884080   -0.868356    0.000000
      3          8           0        0.055255    0.717765    0.000000
 ---------------------------------------------------------------------
 Rotational constants (GHZ):         622.9598643          33.7702840          32.0337533
 1\1\GINC-GAMBA\FOpt\UB3LYP\Gen\H1O2(2)\IRIKURA\30-Sep-2023\0\\# b3lyp/
 gen opt freq CPHF(Grid=OneStep)\\HO2, B3LYP/pcseg-2\\0,2\O,0.055255,-0
 .609221,0.\H,-0.88408,-0.868356,0.\O,0.055255,0.717765,0.\\Version=ES6
 4L-G16RevB.01\State=2-A"\HF=-150.9759929\S2=0.753945\S2-1=0.\S2A=0.750
 01\RMSD=7.605e-09\RMSF=2.040e-04\Dipole=-0.6884496,-0.5764236,0.\Quadr
 upole=0.5169195,-0.2700699,-0.2468496,1.2378843,0.,0.\PG=CS [SG(H1O2)]
 \\@


          EVOLUTION
 IN THE BEGINNING GOD MADE MAN.
 HE WORKED THE DIRT WITH HIS HANDS.
 THEN GOD DECIDED TO GIVE MAN SCIENCE,
 MAN SHOULD BE USEFUL (LIKE AN APPLIANCE.)
 BUT SOON MAN'S KNOWLEDGE GREW TOO GREAT,
 TO THE HEADING SCIENCE HE COULDN'T RELATE
 SO GOD SAID "LETS HAVE DIFFERENT FIELDS,
 WE'LL DIVIDE THEM UP, SEE WHAT IT YIELDS."
 ENTER PHYSICS, CHEMISTRY, BIO
 THEY SPRANG UP AROUND THE NILE.
 BUT CHEMISTRY SURPASSED THE REST
 FAR AND AWAY IT WAS THE BEST.
 EXPERIMENT WAS GOD'S DECREE
 EXPERIMENT DID CHEMISTS WITH LOTS OF GLEE
 BUT SOON THEIR TESTS BEGAN TO BOG,
 THEY FOUND THEMSELVES DEEP IN A FOG.
 "GIVE US SOME HELP" THEY CRIED TO GOD.
 GOD LOOKED AROUND, THEN GAVE THE NOD.
 ENTER EINSTEIN, HEISENBERG, BOHR,
 REACTION PATHS WERE CLEAR ONCE MORE.
 WITH THEORISTS GOD SEND DIRECTION
 AND THEN HE STOPPED, HE'D MADE PERFECTION.
          -- THOMAS A. HOLME, 1981
 Job cpu time:       0 days  0 hours  0 minutes 16.2 seconds.
 Elapsed time:       0 days  0 hours  0 minutes  4.1 seconds.
 File lengths (MBytes):  RWF=     10 Int=      0 D2E=      0 Chk=      2 Scr=      1
 Normal termination of Gaussian 16 at Sat Sep 30 20:47:53 2023.
 Link1:  Proceeding to internal job step number  2.
 ------------------------------------------------------------------
 #N Geom=AllCheck Guess=TCheck SCRF=Check GenChk UB3LYP/ChkBas Freq
 ------------------------------------------------------------------
 1/10=4,29=7,30=1,38=1,40=1/1,3;
 2/12=2,40=1/2;
 3/5=7,6=2,11=2,14=-4,25=1,30=1,67=1,70=2,71=2,74=-5,82=7,116=2,140=1/1,2,3;
 4/5=101/1;
 5/5=2,38=6,98=1/2;
 8/6=4,10=90,11=11/1;
 11/6=1,8=1,9=11,15=111,16=1/1,2,10;
 10/6=1,60=-420/2;
 6/7=2,8=2,9=2,10=2,28=1/1;
 7/8=1,10=1,25=1/1,2,3,16;
 1/10=4,30=1/3;
 99//99;
 Structure from the checkpoint file:  "ho2.chk"
 ------------------
 HO2, B3LYP/pcseg-2
 ------------------
 Charge =  0 Multiplicity = 2
 Redundant internal coordinates found in file.  (old form).
 O,0,0.055255,-0.609221,0.
 H,0,-0.88408,-0.868356,0.
 O,0,0.055255,0.717765,0.
 Recover connectivity data from disk.

 GradGradGradGradGradGradGradGradGradGradGradGradGradGradGradGradGradGrad
 Berny optimization.
 Initialization pass.
                           ----------------------------
                           !    Initial Parameters    !
                           ! (Angstroms and Degrees)  !
 --------------------------                            --------------------------
 ! Name  Definition              Value          Derivative Info.                !
 --------------------------------------------------------------------------------
 ! R1    R(1,2)                  0.9744         calculate D2E/DX2 analytically  !
 ! R2    R(1,3)                  1.327          calculate D2E/DX2 analytically  !
 ! A1    A(2,1,3)              105.4226         calculate D2E/DX2 analytically  !
 --------------------------------------------------------------------------------
 Trust Radius=3.00D-01 FncErr=1.00D-07 GrdErr=1.00D-07 EigMax=2.50D+02 EigMin=1.00D-04
 Number of steps in this run=      2 maximum allowed number of steps=      2.
 GradGradGradGradGradGradGradGradGradGradGradGradGradGradGradGradGradGrad

                          Input orientation:                          
 ---------------------------------------------------------------------
 Center     Atomic      Atomic             Coordinates (Angstroms)
 Number     Number       Type             X           Y           Z
 ---------------------------------------------------------------------
      1          8           0        0.055255   -0.609221    0.000000
      2          1           0       -0.884080   -0.868356    0.000000
      3          8           0        0.055255    0.717765    0.000000
 ---------------------------------------------------------------------
                    Distance matrix (angstroms):
                    1          2          3
     1  O    0.000000
     2  H    0.974424   0.000000
     3  O    1.326986   1.843402   0.000000
 Stoichiometry    HO2(2)
 Framework group  CS[SG(HO2)]
 Deg. of freedom     3
 Full point group                 CS      NOp   2
 Largest Abelian subgroup         CS      NOp   2
 Largest concise Abelian subgroup C1      NOp   1
                         Standard orientation:                         
 ---------------------------------------------------------------------
 Center     Atomic      Atomic             Coordinates (Angstroms)
 Number     Number       Type             X           Y           Z
 ---------------------------------------------------------------------
      1          8           0        0.055255   -0.609221    0.000000
      2          1           0       -0.884080   -0.868356    0.000000
      3          8           0        0.055255    0.717765    0.000000
 ---------------------------------------------------------------------
 Rotational constants (GHZ):         622.9598643          33.7702840          32.0337533
 Basis read from chk: "ho2.chk" (5D, 7F)
 There are    59 symmetry adapted cartesian basis functions of A'  symmetry.
 There are    26 symmetry adapted cartesian basis functions of A"  symmetry.
 There are    50 symmetry adapted basis functions of A'  symmetry.
 There are    24 symmetry adapted basis functions of A"  symmetry.
    74 basis functions,   120 primitive gaussians,    85 cartesian basis functions
     9 alpha electrons        8 beta electrons
       nuclear repulsion energy        32.1630639520 Hartrees.
 NAtoms=    3 NActive=    3 NUniq=    3 SFac= 1.00D+00 NAtFMM=   60 NAOKFM=F Big=F
 Integral buffers will be    131072 words long.
 Raffenetti 2 integral format.
 Two-electron integral symmetry is turned on.
 One-electron integrals computed using PRISM.
 NBasis=    74 RedAO= T EigKep=  2.41D-03  NBF=    50    24
 NBsUse=    74 1.00D-06 EigRej= -1.00D+00 NBFU=    50    24
 Initial guess from the checkpoint file:  "ho2.chk"
 B after Tr=     0.000000    0.000000    0.000000
         Rot=    1.000000    0.000000    0.000000    0.000000 Ang=   0.00 deg.
 Initial guess orbital symmetries:
 Alpha Orbitals:
       Occupied  (A') (A') (A') (A') (A') (A") (A') (A") (A')
       Virtual   (A') (A') (A') (A') (A") (A') (A') (A") (A') (A')
                 (A') (A") (A') (A') (A") (A') (A") (A') (A') (A')
                 (A") (A') (A") (A') (A') (A") (A') (A") (A') (A')
                 (A') (A") (A') (A') (A") (A') (A") (A') (A') (A")
                 (A") (A') (A') (A') (A") (A') (A') (A") (A') (A")
                 (A') (A") (A') (A") (A') (A") (A") (A') (A') (A")
                 (A') (A') (A') (A') (A')
 Beta  Orbitals:
       Occupied  (A') (A') (A') (A') (A') (A') (A") (A')
       Virtual   (A") (A') (A') (A') (A') (A") (A') (A') (A') (A")
                 (A') (A') (A") (A') (A') (A") (A') (A") (A') (A')
                 (A') (A") (A') (A') (A") (A') (A") (A') (A') (A")
                 (A') (A') (A") (A') (A') (A") (A') (A") (A') (A')
                 (A") (A") (A') (A') (A') (A") (A') (A') (A") (A')
                 (A") (A') (A") (A') (A") (A') (A") (A") (A') (A')
                 (A') (A") (A') (A') (A') (A')
 Initial guess <Sx>= 0.0000 <Sy>= 0.0000 <Sz>= 0.5000 <S**2>= 0.7539 S= 0.5020
 Keep R1 and R2 ints in memory in symmetry-blocked form, NReq=7570190.
 Requested convergence on RMS density matrix=1.00D-08 within 128 cycles.
 Requested convergence on MAX density matrix=1.00D-06.
 Requested convergence on             energy=1.00D-06.
 No special actions if energy rises.
 SCF Done:  E(UB3LYP) =  -150.975992917     A.U. after    1 cycles
            NFock=  1  Conv=0.27D-08     -V/T= 2.0027
 <Sx>= 0.0000 <Sy>= 0.0000 <Sz>= 0.5000 <S**2>= 0.7539 S= 0.5020
 <L.S>=  0.00000000000    
 Annihilation of the first spin contaminant:
 S**2 before annihilation     0.7539,   after     0.7500
 DoSCS=F DFT=T ScalE2(SS,OS)=  1.000000  1.000000
 Range of M.O.s used for correlation:     1    74
 NBasis=    74 NAE=     9 NBE=     8 NFC=     0 NFV=     0
 NROrb=     74 NOA=     9 NOB=     8 NVA=    65 NVB=    66

 **** Warning!!: The largest alpha MO coefficient is  0.10205755D+02


 **** Warning!!: The largest beta MO coefficient is  0.10204193D+02

 Symmetrizing basis deriv contribution to polar:
 IMax=3 JMax=2 DiffMx= 0.00D+00
 G2DrvN: will do     4 centers at a time, making    1 passes.
 Calling FoFCou, ICntrl=  3107 FMM=F I1Cent=   0 AccDes= 0.00D+00.
 End of G2Drv F.D. properties file   721 does not exist.
 End of G2Drv F.D. properties file   722 does not exist.
 End of G2Drv F.D. properties file   788 does not exist.
          IDoAtm=111
          Differentiating once with respect to electric field.
                with respect to dipole field.
          Differentiating once with respect to nuclear coordinates.
 Keep R1 and R2 ints in memory in symmetry-blocked form, NReq=7563891.
          There are    12 degrees of freedom in the 1st order CPHF.  IDoFFX=6 NUNeed=     3.
      9 vectors produced by pass  0 Test12= 9.28D-15 8.33D-09 XBig12= 2.72D+01 3.85D+00.
 AX will form     9 AO Fock derivatives at one time.
      9 vectors produced by pass  1 Test12= 9.28D-15 8.33D-09 XBig12= 1.32D+01 1.15D+00.
      9 vectors produced by pass  2 Test12= 9.28D-15 8.33D-09 XBig12= 1.49D+00 5.01D-01.
      9 vectors produced by pass  3 Test12= 9.28D-15 8.33D-09 XBig12= 4.98D-02 5.97D-02.
      9 vectors produced by pass  4 Test12= 9.28D-15 8.33D-09 XBig12= 5.18D-04 4.71D-03.
      9 vectors produced by pass  5 Test12= 9.28D-15 8.33D-09 XBig12= 5.95D-06 7.56D-04.
      9 vectors produced by pass  6 Test12= 9.28D-15 8.33D-09 XBig12= 3.13D-08 3.59D-05.
      4 vectors produced by pass  7 Test12= 9.28D-15 8.33D-09 XBig12= 9.89D-11 2.18D-06.
      1 vectors produced by pass  8 Test12= 9.28D-15 8.33D-09 XBig12= 5.75D-13 1.83D-07.
      1 vectors produced by pass  9 Test12= 9.28D-15 8.33D-09 XBig12= 3.30D-15 1.38D-08.
 InvSVY:  IOpt=1 It=  1 EMax= 1.44D-15
 Solved reduced A of dimension    69 with     9 vectors.
 Isotropic polarizability for W=    0.000000       10.99 Bohr**3.
 End of Minotr F.D. properties file   721 does not exist.
 End of Minotr F.D. properties file   722 does not exist.
 End of Minotr F.D. properties file   788 does not exist.

 **********************************************************************

            Population analysis using the SCF Density.

 **********************************************************************

 Orbital symmetries:
 Alpha Orbitals:
       Occupied  (A') (A') (A') (A') (A') (A") (A') (A") (A')
       Virtual   (A') (A') (A') (A') (A") (A') (A') (A") (A') (A')
                 (A') (A") (A') (A') (A") (A') (A") (A') (A') (A')
                 (A") (A') (A") (A') (A') (A") (A') (A") (A') (A')
                 (A') (A") (A') (A') (A") (A') (A") (A') (A') (A")
                 (A") (A') (A') (A') (A") (A') (A') (A") (A') (A")
                 (A') (A") (A') (A") (A') (A") (A") (A') (A') (A")
                 (A') (A') (A') (A') (A')
 Beta  Orbitals:
       Occupied  (A') (A') (A') (A') (A') (A') (A") (A')
       Virtual   (A") (A') (A') (A') (A') (A") (A') (A') (A') (A")
                 (A') (A') (A") (A') (A') (A") (A') (A") (A') (A')
                 (A') (A") (A') (A') (A") (A') (A") (A') (A') (A")
                 (A') (A') (A") (A') (A') (A") (A') (A") (A') (A')
                 (A") (A") (A') (A') (A') (A") (A') (A') (A") (A')
                 (A") (A') (A") (A') (A") (A') (A") (A") (A') (A')
                 (A') (A") (A') (A') (A') (A')
 The electronic state is 2-A".
 Alpha  occ. eigenvalues --  -19.25959 -19.22018  -1.21010  -0.88484  -0.57701
 Alpha  occ. eigenvalues --   -0.50837  -0.49399  -0.31730  -0.31130
 Alpha virt. eigenvalues --   -0.01079   0.07264   0.25382   0.28993   0.29378
 Alpha virt. eigenvalues --    0.31552   0.35787   0.38530   0.39102   0.48695
 Alpha virt. eigenvalues --    0.70539   0.75699   0.81108   1.08795   1.24630
 Alpha virt. eigenvalues --    1.28365   1.40853   1.49861   1.61109   1.73812
 Alpha virt. eigenvalues --    1.77922   1.83009   1.95591   1.98113   2.07520
 Alpha virt. eigenvalues --    2.10002   2.32536   2.42506   2.45895   2.70982
 Alpha virt. eigenvalues --    2.94410   3.37999   3.45226   3.49128   3.57037
 Alpha virt. eigenvalues --    3.67757   3.76239   3.81266   3.93134   3.94469
 Alpha virt. eigenvalues --    4.03926   4.07927   4.19702   4.25615   4.41639
 Alpha virt. eigenvalues --    4.42398   4.63163   4.80501   4.82903   5.39868
 Alpha virt. eigenvalues --    5.48187   5.91137   5.94806   5.98856   6.00413
 Alpha virt. eigenvalues --    6.09765   6.16356   6.19740   6.29091   6.54328
 Alpha virt. eigenvalues --    6.56356   6.61991   7.04445   7.24339  11.35479
  Beta  occ. eigenvalues --  -19.25051 -19.19867  -1.18317  -0.84311  -0.56205
  Beta  occ. eigenvalues --   -0.47892  -0.42941  -0.29261
  Beta virt. eigenvalues --   -0.13411  -0.00831   0.08997   0.25590   0.29538
  Beta virt. eigenvalues --    0.31168   0.32041   0.36063   0.39456   0.41302
  Beta virt. eigenvalues --    0.49173   0.71427   0.76157   0.81176   1.09025
  Beta virt. eigenvalues --    1.27249   1.29554   1.43906   1.50644   1.63440
  Beta virt. eigenvalues --    1.74907   1.79854   1.84485   1.99041   1.99411
  Beta virt. eigenvalues --    2.08407   2.16057   2.33552   2.47005   2.47681
  Beta virt. eigenvalues --    2.72343   2.96505   3.38970   3.45934   3.50564
  Beta virt. eigenvalues --    3.57994   3.68482   3.78960   3.82343   3.96421
  Beta virt. eigenvalues --    3.98316   4.05449   4.09432   4.21020   4.27546
  Beta virt. eigenvalues --    4.42047   4.43407   4.64116   4.82034   4.83207
  Beta virt. eigenvalues --    5.43668   5.48988   5.96097   5.97208   6.01410
  Beta virt. eigenvalues --    6.07226   6.14549   6.20271   6.20595   6.30721
  Beta virt. eigenvalues --    6.56952   6.58676   6.63949   7.05523   7.25010
  Beta virt. eigenvalues --   11.36610
          Condensed to atoms (all electrons):
               1          2          3
     1  O    7.721845   0.307856   0.035131
     2  H    0.307856   0.503436  -0.040931
     3  O    0.035131  -0.040931   8.170608
          Atomic-Atomic Spin Densities.
               1          2          3
     1  O    0.400439   0.004092  -0.140558
     2  H    0.004092  -0.010416  -0.000037
     3  O   -0.140558  -0.000037   0.882983
 Mulliken charges and spin densities:
               1          2
     1  O   -0.064831   0.263973
     2  H    0.229639  -0.006360
     3  O   -0.164808   0.742387
 Sum of Mulliken charges =  -0.00000   1.00000
 Mulliken charges and spin densities with hydrogens summed into heavy atoms:
               1          2
     1  O    0.164808   0.257613
     3  O   -0.164808   0.742387
 APT charges:
               1
     1  O   -0.245371
     2  H    0.264954
     3  O   -0.019583
 Sum of APT charges =  -0.00000
 APT charges with hydrogens summed into heavy atoms:
               1
     1  O    0.019583
     3  O   -0.019583
 Electronic spatial extent (au):  <R**2>=             54.9422
 Charge=             -0.0000 electrons
 Dipole moment (field-independent basis, Debye):
    X=             -1.7499    Y=             -1.4651    Z=              0.0000  Tot=              2.2822
 Quadrupole moment (field-independent basis, Debye-Ang):
   XX=            -10.0482   YY=            -11.1067   ZZ=            -11.0755
   XY=              1.6650   XZ=              0.0000   YZ=              0.0000
 Traceless Quadrupole moment (field-independent basis, Debye-Ang):
   XX=              0.6953   YY=             -0.3633   ZZ=             -0.3320
   XY=              1.6650   XZ=              0.0000   YZ=              0.0000
 Octapole moment (field-independent basis, Debye-Ang**2):
  XXX=             -2.2162  YYY=             -1.8478  ZZZ=              0.0000  XYY=             -1.7497
  XXY=             -2.0840  XXZ=              0.0000  XZZ=             -0.2299  YZZ=              0.0373
  YYZ=              0.0000  XYZ=              0.0000
 Hexadecapole moment (field-independent basis, Debye-Ang**3):
 XXXX=             -9.9268 YYYY=            -37.6006 ZZZZ=             -8.6550 XXXY=              0.2194
 XXXZ=              0.0000 YYYX=              0.5015 YYYZ=              0.0000 ZZZX=              0.0000
 ZZZY=              0.0000 XXYY=             -7.9714 XXZZ=             -3.3548 YYZZ=             -8.1649
 XXYZ=              0.0000 YYXZ=              0.0000 ZZXY=             -0.2965
 N-N= 3.216306395203D+01 E-N=-4.217031736394D+02  KE= 1.505728066882D+02
 Symmetry A'   KE= 1.431571033888D+02
 Symmetry A"   KE= 7.415703299382D+00
 Symmetry A'   SP=-1.219409679636D-14
 Symmetry A"   SP= 1.000000000000D+00
  Exact polarizability:   9.032   1.505  16.821   0.000   0.000   7.102
 Approx polarizability:  11.341   1.807  25.299  -0.000  -0.000   8.647
                          Isotropic Fermi Contact Couplings
        Atom                 a.u.       MegaHertz       Gauss      10(-4) cm-1
     1  O(17)              0.08291     -50.25936     -17.93379     -16.76472
     2  H(1)              -0.00567     -25.32721      -9.03738      -8.44825
     3  O(17)              0.17884    -108.41310     -38.68449     -36.16272
 --------------------------------------------------------
       Center         ----  Spin Dipole Couplings  ----
                      3XX-RR        3YY-RR        3ZZ-RR
 --------------------------------------------------------
     1   Atom       -0.738697     -0.785228      1.523925
     2   Atom        0.046376     -0.022698     -0.023678
     3   Atom       -1.672405     -1.694961      3.367366
 --------------------------------------------------------
                        XY            XZ            YZ
 --------------------------------------------------------
     1   Atom        0.026512      0.000000      0.000000
     2   Atom        0.040242      0.000000      0.000000
     3   Atom       -0.007587      0.000000      0.000000
 --------------------------------------------------------


 ---------------------------------------------------------------------------------
              Anisotropic Spin Dipole Couplings in Principal Axis System
 ---------------------------------------------------------------------------------

       Atom             a.u.   MegaHertz   Gauss  10(-4) cm-1        Axes

              Baa    -0.7972    57.687    20.584    19.242 -0.4126  0.9109  0.0000
     1 O(17)  Bbb    -0.7267    52.583    18.763    17.540  0.9109  0.4126  0.0000
              Bcc     1.5239  -110.270   -39.347   -36.782  0.0000  0.0000  1.0000
 
              Baa    -0.0412   -21.978    -7.842    -7.331 -0.4176  0.9086 -0.0000
     2 H(1)   Bbb    -0.0237   -12.633    -4.508    -4.214  0.0000  0.0000  1.0000
              Bcc     0.0649    34.611    12.350    11.545  0.9086  0.4176  0.0000
 
              Baa    -1.6973   122.814    43.823    40.966  0.2918  0.9565  0.0000
     3 O(17)  Bbb    -1.6701   120.847    43.121    40.310  0.9565 -0.2918 -0.0000
              Bcc     3.3674  -243.660   -86.944   -81.276  0.0000  0.0000  1.0000
 

 ---------------------------------------------------------------------------------

 Calling FoFJK, ICntrl=    100127 FMM=F ISym2X=1 I1Cent= 0 IOpClX= 1 NMat=1 NMatS=1 NMatT=0.
 Full mass-weighted force constant matrix:
 Low frequencies ---  -66.8376  -25.9239  -21.4467   -0.0012    0.0014    0.0019
 Low frequencies --- 1163.2290 1432.2618 3606.9504
 Diagonal vibrational polarizability:
        0.0647425       1.0772356       0.0000000
 Harmonic frequencies (cm**-1), IR intensities (KM/Mole), Raman scattering
 activities (A**4/AMU), depolarization ratios for plane and unpolarized
 incident light, reduced masses (AMU), force constants (mDyne/A),
 and normal coordinates:
                      1                      2                      3
                     A'                     A'                     A'
 Frequencies --   1163.2290              1432.2617              3606.9504
 Red. masses --     12.1788                 1.1422                 1.0686
 Frc consts  --      9.7092                 1.3804                 8.1913
 IR Inten    --     29.5720                37.9847                26.8443
  Atom  AN      X      Y      Z        X      Y      Z        X      Y      Z
     1   8    -0.04   0.62   0.00     0.06  -0.00   0.00    -0.06  -0.01  -0.00
     2   1     0.20  -0.46   0.00    -0.19   0.98   0.00     0.97   0.24  -0.00
     3   8     0.02  -0.59   0.00    -0.05  -0.06   0.00     0.00  -0.00  -0.00

 -------------------
 - Thermochemistry -
 -------------------
 Temperature   298.150 Kelvin.  Pressure   1.00000 Atm.
 Atom     1 has atomic number  8 and mass  15.99491
 Atom     2 has atomic number  1 and mass   1.00783
 Atom     3 has atomic number  8 and mass  15.99491
 Molecular mass:    32.99765 amu.
 Principal axes and moments of inertia in atomic units:
                           1         2         3
     Eigenvalues --     2.89704  53.44169  56.33874
           X            0.05993   0.99820   0.00000
           Y            0.99820  -0.05993   0.00000
           Z            0.00000  -0.00000   1.00000
 This molecule is an asymmetric top.
 Rotational symmetry number  1.
 Rotational temperatures (Kelvin)     29.89736     1.62072     1.53738
 Rotational constants (GHZ):         622.95986    33.77028    32.03375
 Zero-point vibrational energy      37098.8 (Joules/Mol)
                                    8.86683 (Kcal/Mol)
 Vibrational temperatures:   1673.63  2060.71  5189.60
          (Kelvin)
 
 Zero-point correction=                           0.014130 (Hartree/Particle)
 Thermal correction to Energy=                    0.016989
 Thermal correction to Enthalpy=                  0.017933
 Thermal correction to Gibbs Free Energy=        -0.008044
 Sum of electronic and zero-point Energies=           -150.961863
 Sum of electronic and thermal Energies=              -150.959004
 Sum of electronic and thermal Enthalpies=            -150.958060
 Sum of electronic and thermal Free Energies=         -150.984037
 
                     E (Thermal)             CV                S
                      KCal/Mol        Cal/Mol-Kelvin    Cal/Mol-Kelvin
 Total                   10.661              6.287             54.673
 Electronic               0.000              0.000              1.377
 Translational            0.889              2.981             36.413
 Rotational               0.889              2.981             16.819
 Vibrational              8.883              0.325              0.064
                       Q            Log10(Q)             Ln(Q)
 Total Bot       0.501141D+04          3.699960          8.519473
 Total V=0       0.158269D+11         10.199396         23.484976
 Vib (Bot)       0.318116D-06         -6.497415        -14.960851
 Vib (V=0)       0.100466D+01          0.002020          0.004652
 Electronic      0.200000D+01          0.301030          0.693147
 Translational   0.745038D+07          6.872178         15.823776
 Rotational      0.105722D+04          3.024167          6.963401
 ***** Axes restored to original set *****
 -------------------------------------------------------------------
 Center     Atomic                   Forces (Hartrees/Bohr)
 Number     Number              X              Y              Z
 -------------------------------------------------------------------
      1        8           0.000279104   -0.000289080   -0.000000000
      2        1          -0.000276786   -0.000072852   -0.000000000
      3        8          -0.000002318    0.000361932   -0.000000000
 -------------------------------------------------------------------
 Cartesian Forces:  Max     0.000361932 RMS     0.000203957
 FormGI is forming the generalized inverse of G from B-inverse, IUseBI=4.

 GradGradGradGradGradGradGradGradGradGradGradGradGradGradGradGradGradGrad
 Berny optimization.
 Internal  Forces:  Max     0.000361966 RMS     0.000266419
 Search for a local minimum.
 Step number   1 out of a maximum of    2
 All quantities printed in internal units (Hartrees-Bohrs-Radians)
 Second derivative matrix not updated -- analytic derivatives used.
 The second derivative matrix:
                          R1        R2        A1
           R1           0.46624
           R2           0.02050   0.44256
           A1          -0.01208   0.08129   0.23556
 ITU=  0
     Eigenvalues ---    0.20619   0.45361   0.48456
 Angle between quadratic step and forces=  15.64 degrees.
 Linear search not attempted -- first point.
 Iteration  1 RMS(Cart)=  0.00044847 RMS(Int)=  0.00000006
 Iteration  2 RMS(Cart)=  0.00000007 RMS(Int)=  0.00000000
 ClnCor:  largest displacement from symmetrization is 0.00D+00 for atom     0.
 Variable       Old X    -DE/DX   Delta X   Delta X   Delta X     New X
                                 (Linear)    (Quad)   (Total)
    R1        1.84139   0.00029   0.00000   0.00057   0.00057   1.84196
    R2        2.50764   0.00036   0.00000   0.00084   0.00084   2.50848
    A1        1.83997  -0.00001   0.00000  -0.00029  -0.00029   1.83968
         Item               Value     Threshold  Converged?
 Maximum Force            0.000362     0.000450     YES
 RMS     Force            0.000266     0.000300     YES
 Maximum Displacement     0.000502     0.001800     YES
 RMS     Displacement     0.000448     0.001200     YES
 Predicted change in Energy=-2.351315D-07
 Optimization completed.
    -- Stationary point found.
                           ----------------------------
                           !   Optimized Parameters   !
                           ! (Angstroms and Degrees)  !
 --------------------------                            --------------------------
 ! Name  Definition              Value          Derivative Info.                !
 --------------------------------------------------------------------------------
 ! R1    R(1,2)                  0.9744         -DE/DX =    0.0003              !
 ! R2    R(1,3)                  1.327          -DE/DX =    0.0004              !
 ! A1    A(2,1,3)              105.4226         -DE/DX =    0.0                 !
 --------------------------------------------------------------------------------
 GradGradGradGradGradGradGradGradGradGradGradGradGradGradGradGradGradGrad


 ----------------------------------------------------------------------

 Electric dipole moment (input orientation):
 (Debye = 10**-18 statcoulomb cm , SI units = C m)
                  (au)            (Debye)         (10**-30 SI)
   Tot        0.897902D+00      0.228224D+01      0.761273D+01
   x         -0.688450D+00     -0.174986D+01     -0.583692D+01
   y         -0.576424D+00     -0.146512D+01     -0.488713D+01
   z          0.000000D+00      0.000000D+00      0.000000D+00

 Dipole polarizability, Alpha (input orientation).
 (esu units = cm**3 , SI units = C**2 m**2 J**-1)
 Alpha(0;0):
               (au)            (10**-24 esu)      (10**-40 SI)
   iso        0.109852D+02      0.162783D+01      0.181121D+01
   aniso      0.928553D+01      0.137597D+01      0.153098D+01
   xx         0.903215D+01      0.133843D+01      0.148920D+01
   yx         0.150472D+01      0.222977D+00      0.248096D+00
   yy         0.168212D+02      0.249265D+01      0.277345D+01
   zx         0.000000D+00      0.000000D+00      0.000000D+00
   zy         0.000000D+00      0.000000D+00      0.000000D+00
   zz         0.710208D+01      0.105242D+01      0.117097D+01

 ----------------------------------------------------------------------

 Dipole orientation:
     8          0.60970274         -0.72819573          0.65901286
     1          0.11918517         -0.14234827          2.33439508
     8         -0.62460042          0.74598871         -0.95081164

 Electric dipole moment (dipole orientation):
 (Debye = 10**-18 statcoulomb cm , SI units = C m)
                  (au)            (Debye)         (10**-30 SI)
   Tot        0.897902D+00      0.228224D+01      0.761273D+01
   x          0.000000D+00      0.000000D+00      0.000000D+00
   y          0.000000D+00      0.000000D+00      0.000000D+00
   z          0.897902D+00      0.228224D+01      0.761273D+01

 Dipole polarizability, Alpha (dipole orientation).
 (esu units = cm**3 , SI units = C**2 m**2 J**-1)
 Alpha(0;0):
               (au)            (10**-24 esu)      (10**-40 SI)
   iso        0.109852D+02      0.162783D+01      0.181121D+01
   aniso      0.928553D+01      0.137597D+01      0.153098D+01
   xx         0.917415D+01      0.135947D+01      0.151261D+01
   yx        -0.247477D+01     -0.366723D+00     -0.408034D+00
   yy         0.100578D+02      0.149041D+01      0.165831D+01
   zx         0.263103D+01      0.389878D+00      0.433798D+00
   zy        -0.314236D+01     -0.465649D+00     -0.518105D+00
   zz         0.137235D+02      0.203362D+01      0.226270D+01

 ----------------------------------------------------------------------
 1\1\GINC-GAMBA\Freq\UB3LYP\Gen\H1O2(2)\IRIKURA\30-Sep-2023\0\\#N Geom=
 AllCheck Guess=TCheck SCRF=Check GenChk UB3LYP/ChkBas Freq\\HO2, B3LYP
 /pcseg-2\\0,2\O,0.055255,-0.609221,0.\H,-0.88408,-0.868356,0.\O,0.0552
 55,0.717765,0.\\Version=ES64L-G16RevB.01\State=2-A"\HF=-150.9759929\S2
 =0.753945\S2-1=0.\S2A=0.75001\RMSD=2.666e-09\RMSF=2.040e-04\ZeroPoint=
 0.0141302\Thermal=0.0169887\Dipole=-0.6884496,-0.5764242,0.\DipoleDeri
 v=0.023264,-0.1030436,0.,0.0384568,-0.5256708,0.,0.,0.,-0.2337069,0.16
 65676,-0.0010753,0.,-0.0106104,0.2404567,0.,0.,0.,0.3878382,-0.1898316
 ,0.1041189,0.,-0.0278465,0.2852141,0.,0.,0.,-0.1541313\Polar=9.0321536
 ,1.5047249,16.8212358,0.,0.,7.102076\Quadrupole=0.5169195,-0.2700701,-
 0.2468494,1.2378841,0.,0.\PG=CS [SG(H1O2)]\NImag=0\\0.51526417,0.07261
 874,0.44056096,0.,0.,-0.00030609,-0.45974025,-0.08809918,0.,0.44153300
 ,-0.04822548,-0.04601374,0.,0.09612285,0.09402489,0.,0.,0.00016076,0.,
 0.,-0.00015956,-0.05552392,0.01548045,0.,0.01820725,-0.04789737,0.,0.0
 3731666,-0.02439326,-0.39454722,0.,-0.00802366,-0.04801115,0.,0.032416
 92,0.44255837,0.,0.,0.00014533,0.,0.,-0.00000121,0.,0.,-0.00014412\\-0
 .00027910,0.00028908,0.,0.00027679,0.00007285,0.,0.00000232,-0.0003619
 3,0.\\\@


      TO SUSPECT YOUR OWN MORTALITY IS TO KNOW THE BEGINNING OF TERROR.
      TO LEARN IRREFUTABLY THAT YOU ARE MORTAL IS TO KNOW THE END
      OF TERROR.

                                                  -- JESSICA
                                                     CHILDREN OF DUNE
                                                     BY FRANK HERBERT
 Job cpu time:       0 days  0 hours  1 minutes 12.6 seconds.
 Elapsed time:       0 days  0 hours  0 minutes 18.2 seconds.
 File lengths (MBytes):  RWF=     10 Int=      0 D2E=      0 Chk=      2 Scr=      1
 Normal termination of Gaussian 16 at Sat Sep 30 20:48:11 2023.
 AtFile(1): ccpvtz-f12.gbs
            -H     0
            S    3   1.00
                 82.6400000              0.0020060
                 12.4100000              0.0153430
                  2.8240000              0.0755790
            S    1   1.00
                  0.7977000              1.0000000
            S    1   1.00
                  0.2581000              1.0000000
            S    1   1.00
                  0.0898900              1.0000000
            P    1   1.00
                  1.5513000              1.0000000
            P    1   1.00
                  0.5580000              1.0000000
            P    1   1.00
                  0.2007000              1.0000000
            D    1   1.00
                  0.4648000              1.0000000
            ****
            -He     0
            S    4   1.00
                528.5000000              0.0009400
                 79.3100000              0.0072140
                 18.0500000              0.0359750
                  5.0850000              0.1277820
            S    1   1.00
                  1.6090000              1.0000000
            S    1   1.00
                  0.5363000              1.0000000
            S    1   1.00
                  0.1833000              1.0000000
            S    1   1.00
                  0.0481900              1.0000000
            P    1   1.00
                  3.7026000              1.0000000
            P    1   1.00
                  1.2284000              1.0000000
            P    1   1.00
                  0.4075000              1.0000000
            D    1   1.00
                  0.6525000              1.0000000
            ****
            -Li     0
            S    9   1.00
               6601.0000000              0.0001170
                989.7000000              0.0009110
                225.7000000              0.0047280
                 64.2900000              0.0191970
                 21.1800000              0.0630470
                  7.7240000              0.1632080
                  3.0030000              0.3148270
                  1.2120000              0.3939360
                  0.4930000              0.1969180
            S    9   1.00
               6601.0000000             -0.0000180
                989.7000000             -0.0001420
                225.7000000             -0.0007410
                 64.2900000             -0.0030200
                 21.1800000             -0.0101230
                  7.7240000             -0.0270940
                  3.0030000             -0.0573590
                  1.2120000             -0.0938950
                  0.4930000             -0.1210910
            S    1   1.00
                  0.0951500              1.0000000
            S    1   1.00
                  0.0479100              1.0000000
            S    1   1.00
                  0.0222000              1.0000000
            S    1   1.00
                  0.0064000              1.0000000
            P    2   1.00
                  6.2500000              0.0033880
                  1.3700000              0.0193160
            P    1   1.00
                  0.3672000              1.0000000
            P    1   1.00
                  0.1192000              1.0000000
            P    1   1.00
                  0.0447400              1.0000000
            P    1   1.00
                  0.0179500              1.0000000
            P    1   1.00
                  0.0075000              1.0000000
            D    1   1.00
                  0.2351180              1.0000000
            D    1   1.00
                  0.1194040              1.0000000
            D    1   1.00
                  0.0606390              1.0000000
            F    1   1.00
                  0.1637750              1.0000000
            F    1   1.00
                  0.0759100              1.0000000
            ****
            -Be     0
            S    9   1.00
              14630.0000000              0.0000920
               2191.0000000              0.0007130
                498.2000000              0.0037350
                140.9000000              0.0154680
                 45.8600000              0.0528740
                 16.4700000              0.1456940
                  6.3190000              0.3026810
                  2.5350000              0.4049360
                  1.0350000              0.2223870
            S    9   1.00
              14630.0000000             -0.0000170
               2191.0000000             -0.0001300
                498.2000000             -0.0006790
                140.9000000             -0.0028570
                 45.8600000             -0.0098130
                 16.4700000             -0.0286090
                  6.3190000             -0.0637600
                  2.5350000             -0.1172310
                  1.0350000             -0.1212020
            S    1   1.00
                  0.2528000              1.0000000
            S    1   1.00
                  0.1052000              1.0000000
            S    1   1.00
                  0.0426100              1.0000000
            S    1   1.00
                  0.0141000              1.0000000
            P    2   1.00
                 14.0300000              0.0040990
                  3.1680000              0.0256260
            P    1   1.00
                  0.9024000              1.0000000
            P    1   1.00
                  0.3036000              1.0000000
            P    1   1.00
                  0.1130000              1.0000000
            P    1   1.00
                  0.0428600              1.0000000
            P    1   1.00
                  0.0084000              1.0000000
            D    1   1.00
                  0.4670460              1.0000000
            D    1   1.00
                  0.2205970              1.0000000
            D    1   1.00
                  0.1041940              1.0000000
            F    1   1.00
                  0.3166400              1.0000000
            F    1   1.00
                  0.1457880              1.0000000
            ****
            -B     0
            S    9   1.00
              23870.0000000              0.0000880
               3575.0000000              0.0006870
                812.8000000              0.0036000
                229.7000000              0.0149490
                 74.6900000              0.0514350
                 26.8100000              0.1433020
                 10.3200000              0.3009350
                  4.1780000              0.4035260
                  1.7270000              0.2253400
            S    9   1.00
              23870.0000000             -0.0000180
               3575.0000000             -0.0001390
                812.8000000             -0.0007250
                229.7000000             -0.0030630
                 74.6900000             -0.0105810
                 26.8100000             -0.0313650
                 10.3200000             -0.0710120
                  4.1780000             -0.1321030
                  1.7270000             -0.1230720
            S    1   1.00
                  0.4704000              1.0000000
            S    1   1.00
                  0.1896000              1.0000000
            S    1   1.00
                  0.0739400              1.0000000
            S    1   1.00
                  0.0272100              1.0000000
            P    2   1.00
                 22.2600000              0.0050950
                  5.0580000              0.0332060
            P    1   1.00
                  1.4870000              1.0000000
            P    1   1.00
                  0.5071000              1.0000000
            P    1   1.00
                  0.1812000              1.0000000
            P    1   1.00
                  0.0646300              1.0000000
            P    1   1.00
                  0.0187800              1.0000000
[...]
  
 The following legend is applicable only to US Government
 contracts under FAR:
  
                    RESTRICTED RIGHTS LEGEND
  
 Use, reproduction and disclosure by the US Government is
 subject to restrictions as set forth in subparagraphs (a)
 and (c) of the Commercial Computer Software - Restricted
 Rights clause in FAR 52.227-19.
  
 Gaussian, Inc.
 340 Quinnipiac St., Bldg. 40, Wallingford CT 06492
  
  
 ---------------------------------------------------------------
 Warning -- This program may not be used in any manner that
 competes with the business of Gaussian, Inc. or will provide
 assistance to any competitor of Gaussian, Inc.  The licensee
 of this program is prohibited from giving any competitor of
 Gaussian, Inc. access to this program.  By using this program,
 the user acknowledges that Gaussian, Inc. is engaged in the
 business of creating and licensing software in the field of
 computational chemistry and represents and warrants to the
 licensee that it is not a competitor of Gaussian, Inc. and that
 it will not use this program in any manner prohibited above.
 ---------------------------------------------------------------
  

 Cite this work as:
 Gaussian 16, Revision B.01,
 M. J. Frisch, G. W. Trucks, H. B. Schlegel, G. E. Scuseria, 
 M. A. Robb, J. R. Cheeseman, G. Scalmani, V. Barone, 
 G. A. Petersson, H. Nakatsuji, X. Li, M. Caricato, A. V. Marenich, 
 J. Bloino, B. G. Janesko, R. Gomperts, B. Mennucci, H. P. Hratchian, 
 J. V. Ortiz, A. F. Izmaylov, J. L. Sonnenberg, D. Williams-Young, 
 F. Ding, F. Lipparini, F. Egidi, J. Goings, B. Peng, A. Petrone, 
 T. Henderson, D. Ranasinghe, V. G. Zakrzewski, J. Gao, N. Rega, 
 G. Zheng, W. Liang, M. Hada, M. Ehara, K. Toyota, R. Fukuda, 
 J. Hasegawa, M. Ishida, T. Nakajima, Y. Honda, O. Kitao, H. Nakai, 
 T. Vreven, K. Throssell, J. A. Montgomery, Jr., J. E. Peralta, 
 F. Ogliaro, M. J. Bearpark, J. J. Heyd, E. N. Brothers, K. N. Kudin, 
 V. N. Staroverov, T. A. Keith, R. Kobayashi, J. Normand, 
 K. Raghavachari, A. P. Rendell, J. C. Burant, S. S. Iyengar, 
 J. Tomasi, M. Cossi, J. M. Millam, M. Klene, C. Adamo, R. Cammi, 
 J. W. Ochterski, R. L. Martin, K. Morokuma, O. Farkas, 
 J. B. Foresman, and D. J. Fox, Gaussian, Inc., Wallingford CT, 2016.
 
 ******************************************
 Gaussian 16:  ES64L-G16RevB.01 20-Dec-2017
                30-Sep-2023 
 ******************************************
 %chk=ho2.chk
 %mem=500mw
 %nprocs=4
 Will use up to    4 processors via shared memory.
 ---------------------------------
 # rohf/gen geom=check guess=check
 ---------------------------------
 1/29=2,38=1,172=1/1;
 2/12=2,40=1/2;
 3/5=7,11=2,14=-4,25=1,30=1,116=101/1,2,3;
 4/5=1/1;
 5/5=2,38=6/2;
 6/7=2,8=2,9=2,10=2,28=1/1;
 99/5=1,9=1/99;
 ---------------------
 HO2, ROHF/cc-pVTZ-F12
 ---------------------
 Structure from the checkpoint file:  "ho2.chk"
 Charge =  0 Multiplicity = 2
 Redundant internal coordinates found in file.  (old form).
 O,0,0.055255,-0.609221,0.
 H,0,-0.88408,-0.868356,0.
 O,0,0.055255,0.717765,0.
 Recover connectivity data from disk.
                           ----------------------------
                           !    Current Parameters    !
                           ! (Angstroms and Degrees)  !
 --------------------------                            --------------------------
 ! Name  Definition              Value                                          !
 --------------------------------------------------------------------------------
 ! R1    R(1,2)                  0.9744                                         !
 ! R2    R(1,3)                  1.327                                          !
 ! A1    A(2,1,3)              105.4226                                         !
 --------------------------------------------------------------------------------
                          Input orientation:                          
 ---------------------------------------------------------------------
 Center     Atomic      Atomic             Coordinates (Angstroms)
 Number     Number       Type             X           Y           Z
 ---------------------------------------------------------------------
      1          8           0        0.055255   -0.609221    0.000000
      2          1           0       -0.884080   -0.868356    0.000000
      3          8           0        0.055255    0.717765    0.000000
 ---------------------------------------------------------------------
                    Distance matrix (angstroms):
                    1          2          3
     1  O    0.000000
     2  H    0.974424   0.000000
     3  O    1.326986   1.843402   0.000000
 Stoichiometry    HO2(2)
 Framework group  CS[SG(HO2)]
 Deg. of freedom     3
 Full point group                 CS      NOp   2
 Largest Abelian subgroup         CS      NOp   2
 Largest concise Abelian subgroup C1      NOp   1
                         Standard orientation:                         
 ---------------------------------------------------------------------
 Center     Atomic      Atomic             Coordinates (Angstroms)
 Number     Number       Type             X           Y           Z
 ---------------------------------------------------------------------
      1          8           0        0.055255   -0.609221    0.000000
      2          1           0       -0.884080   -0.868356    0.000000
      3          8           0        0.055255    0.717765    0.000000
 ---------------------------------------------------------------------
 Rotational constants (GHZ):         622.9598643          33.7702840          32.0337533
 General basis read from cards:  (5D, 7F)
 There are    98 symmetry adapted cartesian basis functions of A'  symmetry.
 There are    45 symmetry adapted cartesian basis functions of A"  symmetry.
 There are    83 symmetry adapted basis functions of A'  symmetry.
 There are    41 symmetry adapted basis functions of A"  symmetry.
   124 basis functions,   177 primitive gaussians,   143 cartesian basis functions
     9 alpha electrons        8 beta electrons
       nuclear repulsion energy        32.1630639520 Hartrees.
 NAtoms=    3 NActive=    3 NUniq=    3 SFac= 1.00D+00 NAtFMM=   60 NAOKFM=F Big=F
 Integral buffers will be    131072 words long.
 Raffenetti 2 integral format.
 Two-electron integral symmetry is turned on.
 One-electron integrals computed using PRISM.
 NBasis=   124 RedAO= T EigKep=  3.80D-04  NBF=    83    41
 NBsUse=   124 1.00D-06 EigRej= -1.00D+00 NBFU=    83    41
 Initial guess from the checkpoint file:  "ho2.chk"
 B after Tr=     0.000000    0.000000    0.000000
         Rot=    1.000000    0.000000    0.000000    0.000000 Ang=   0.00 deg.
 BiOrM2:  NumA=       9 NumB=       8.
 Eigenvalues of SAB:
  0.99999996  0.99999978  0.99997192  0.99996250  0.99987387
  0.99985938  0.99955958  0.99880550 -0.22879688
 BiOrM2:  NumA=       1 NumB=     116.
 Eigenvalues of SAB:
  1.00000000 -0.51430872 -2.41223786  6.89170943 34.33093122
  4.06385517  0.12086151 -0.01051471  0.00000000 -0.46576802
  0.04517846  0.00000000  1.44834952 -0.15768193  0.00000000
 -9.55045246 -1.03313661  0.00000000-10.29408470  0.62179941
  0.00000000 -0.44586712 -0.29229158  0.00000000  0.02715523
  0.00000000  0.00000000 -0.10661122 -0.04399552 -0.18415086
  0.00000000  0.00000000  0.54925956  0.19778114 -3.48703948
  0.00000000  0.00000000  0.99440040  3.74682447  0.00000000
  0.13772659 -0.00939565  0.00000000  0.00000000 -0.06383905
  0.00448871  0.00000000  0.16695346 -0.11248982  0.00000000
  0.00000000 -0.55653282 -1.38289615  0.35705769 -2.66605652
-28.65756271 -8.12133449  0.32950189 -0.01136977  0.00000000
 -8.03214317 -0.96210808  0.00000000-10.30708744 -3.06487384
  0.00000000  1.66622392  0.00000000  0.00000000 -2.75933782
 -1.07154722  0.05560250  0.12615931  0.63594721 -1.64027632
 -6.25555233  0.35193850  0.03960386 -0.04186642  0.00000000
 -0.14573183  0.16343154  0.00000000  0.37208922 -0.53525225
  0.00000000 -0.95747859  2.90113990  0.00000000 -0.28658284
  2.54121056  0.00000000  0.00725501 -0.41843518  0.00000000
 -0.07335883  0.00000000  0.00000000 -0.01292480  0.02035938
  0.25338346  0.00000000  0.00000000  0.10768205 -0.08204411
  0.26550648  0.00000000  0.00000000  1.23544856  1.14696342
  0.00000000 -0.01921224 -0.07696173  0.00000000  0.00000000
 -0.10815113
 BiOrM2:  NumA=     115 NumB=     115.
 Eigenvalues of SAB:
  1.00000000  1.00000000  1.00000000  1.00000000  1.00000000
  1.00000000  1.00000000  1.00000000  1.00000000  1.00000000
  1.00000000  1.00000000  1.00000000  1.00000000  1.00000000
  1.00000000  1.00000000  1.00000000  1.00000000  1.00000000
  1.00000000  1.00000000  1.00000000  1.00000000  1.00000000
  1.00000000  1.00000000  1.00000000  1.00000000  1.00000000
  1.00000000  1.00000000  1.00000000  1.00000000  1.00000000
  1.00000000  1.00000000  1.00000000  1.00000000  1.00000000
  1.00000000  1.00000000  1.00000000  1.00000000  1.00000000
  1.00000000  1.00000000  1.00000000  1.00000000  1.00000000
  1.00000000  1.00000000  1.00000000  1.00000000  1.00000000
  1.00000000  1.00000000  1.00000000  1.00000000  1.00000000
  1.00000000  1.00000000  1.00000000  1.00000000  1.00000000
  1.00000000  1.00000000  1.00000000  1.00000000  1.00000000
  1.00000000  1.00000000  1.00000000  1.00000000  1.00000000
  1.00000000  1.00000000  1.00000000  1.00000000  1.00000000
  1.00000000  1.00000000  1.00000000  1.00000000  1.00000000
  1.00000000  1.00000000  1.00000000  1.00000000  1.00000000
  1.00000000  1.00000000  1.00000000  1.00000000  1.00000000
  1.00000000  1.00000000  1.00000000  1.00000000  1.00000000
  1.00000000  1.00000000  1.00000000  1.00000000  1.00000000
  1.00000000  1.00000000  0.99999996  0.99999978  0.99997192
  0.99996250  0.99987387  0.99985938  0.99955958  0.99880550
 Initial guess orbital symmetries:
       Occupied  (A') (A') (A') (A') (A') (A') (A') (A") (A")
       Virtual   (A') (A') (A') (A') (A') (A') (A") (A") (A") (A")
                 (A") (A") (A") (A") (A") (A") (A") (A") (A") (A")
                 (A") (A") (A") (A") (A") (A") (A") (A") (A") (A")
                 (A") (A") (A") (A") (A") (A") (A") (A") (A") (A")
                 (A") (A") (A") (A") (A") (A") (A") (A") (A") (A")
                 (A") (A") (A") (A") (A") (A") (A") (A") (A") (A")
                 (A") (A") (A") (A") (A") (A") (A") (A") (A") (A")
                 (A") (A") (A") (A") (A") (A") (A") (A") (A") (A")
                 (A") (A") (A") (A") (A") (A") (A") (A") (A") (A")
                 (A") (A") (A") (A") (A") (A") (A") (A") (A") (A")
                 (A") (A') (A') (A') (A') (A') (A') (A') (A') (A')
                 (A') (A') (A') (A') (A")
 Keep R1 and R2 ints in memory in symmetry-blocked form, NReq=45745023.
 Requested convergence on RMS density matrix=1.00D-08 within 128 cycles.
 Requested convergence on MAX density matrix=1.00D-06.
 Requested convergence on             energy=1.00D-06.
 No special actions if energy rises.
 An orbital has undefined symmetry, so N**3 symmetry is turned off.
 SCF Done:  E(ROHF) =  -150.241809494     A.U. after   14 cycles
            NFock= 14  Conv=0.70D-08     -V/T= 2.0008
 <Sx>= 0.0000 <Sy>= 0.0000 <Sz>= 0.5000 <S**2>= 0.7500 S= 0.5000
 <L.S>=  0.00000000000    
 Annihilation of the first spin contaminant:
 S**2 before annihilation     0.7500,   after     0.7500

 **********************************************************************

            Population analysis using the SCF Density.

 **********************************************************************

 Orbital symmetries:
       Occupied  (A') (A') (A') (A') (A') (A') (A") (A') (A")
       Virtual   (A') (A') (A") (A') (A') (A") (A') (A') (A') (A')
                 (A") (A') (A') (A') (A') (A") (A') (A") (A') (A')
                 (A') (A") (A") (A') (A') (A') (A") (A') (A') (A')
                 (A") (A') (A") (A') (A") (A') (A') (A') (A") (A')
                 (A') (A') (A") (A") (A") (A') (A') (A") (A") (A')
                 (A') (A') (A") (A') (A') (A') (A") (A') (A") (A')
                 (A") (A') (A") (A') (A") (A') (A') (A") (A') (A')
                 (A') (A') (A") (A') (A') (A') (A") (A') (A') (A")
                 (A') (A") (A') (A") (A') (A") (A") (A') (A') (A')
                 (A') (A") (A') (A") (A') (A') (A') (A") (A") (A')
                 (A') (A") (A') (A") (A') (A') (A') (A") (A') (A")
                 (A') (A') (A') (A') (A')
 The electronic state is 2-A".
 Alpha  occ. eigenvalues --  -20.66471 -20.66397  -1.53339  -1.14169  -0.75955
 Alpha  occ. eigenvalues --   -0.65851  -0.61083  -0.50125  -0.14370
 Alpha virt. eigenvalues --    0.08405   0.11153   0.13524   0.13538   0.17223
 Alpha virt. eigenvalues --    0.17860   0.18361   0.24239   0.29955   0.39359
 Alpha virt. eigenvalues --    0.47033   0.51896   0.53158   0.60903   0.69201
 Alpha virt. eigenvalues --    0.69793   0.69918   0.73665   0.73949   0.82464
 Alpha virt. eigenvalues --    0.93537   1.05608   1.12002   1.12314   1.21758
 Alpha virt. eigenvalues --    1.24448   1.33579   1.48136   1.54390   1.60409
 Alpha virt. eigenvalues --    1.61483   1.66251   1.67584   1.75627   1.76215
 Alpha virt. eigenvalues --    1.83328   1.96254   2.04515   2.07632   2.12728
 Alpha virt. eigenvalues --    2.21090   2.22328   2.24670   2.32263   2.44878
 Alpha virt. eigenvalues --    2.48738   2.52048   2.53390   2.63015   2.67104
 Alpha virt. eigenvalues --    2.70719   2.84803   2.98793   3.01309   3.31949
 Alpha virt. eigenvalues --    3.33361   3.42259   3.58465   3.67506   3.72632
 Alpha virt. eigenvalues --    3.78483   3.82347   3.85727   3.86971   3.88984
 Alpha virt. eigenvalues --    3.97833   4.04307   4.08924   4.09941   4.25362
 Alpha virt. eigenvalues --    4.37323   5.05893   5.28982   5.44884   5.93319
 Alpha virt. eigenvalues --    6.10238   6.38882   6.52808   6.58553   6.73799
 Alpha virt. eigenvalues --    6.79734   6.79894   6.93479   7.09192   7.15137
 Alpha virt. eigenvalues --    7.21887   7.57845   7.58474   7.82685   8.36634
 Alpha virt. eigenvalues --    8.82240   9.50093   9.74736   9.94077  10.11003
 Alpha virt. eigenvalues --   10.26547  10.47735  10.93839  11.00363  11.03875
 Alpha virt. eigenvalues --   11.16640  11.20473  11.42217  11.55415  11.61046
 Alpha virt. eigenvalues --   12.01398  13.21021  37.16959  37.34110  37.52517
 Alpha virt. eigenvalues --   37.60324  37.76775  38.00666  41.23724  43.32861
          Condensed to atoms (all electrons):
               1          2          3
     1  O    8.038851   0.240432   0.060216
     2  H    0.240432   0.386996  -0.026148
     3  O    0.060216  -0.026148   8.025154
          Atomic-Atomic Spin Densities.
               1          2          3
     1  O    0.173468   0.004882  -0.084074
     2  H    0.004882   0.000426  -0.002529
     3  O   -0.084074  -0.002529   0.989547
 Mulliken charges and spin densities:
               1          2
     1  O   -0.339498   0.094277
     2  H    0.398720   0.002779
     3  O   -0.059221   0.902944
 Sum of Mulliken charges =  -0.00000   1.00000
 Mulliken charges and spin densities with hydrogens summed into heavy atoms:
               1          2
     1  O    0.059221   0.097056
     3  O   -0.059221   0.902944
 Electronic spatial extent (au):  <R**2>=             54.4266
 Charge=             -0.0000 electrons
 Dipole moment (field-independent basis, Debye):
    X=             -1.7473    Y=             -0.8753    Z=              0.0000  Tot=              1.9543
 Quadrupole moment (field-independent basis, Debye-Ang):
   XX=             -9.7365   YY=            -10.9164   ZZ=            -10.8841
   XY=              1.7718   XZ=              0.0000   YZ=              0.0000
 Traceless Quadrupole moment (field-independent basis, Debye-Ang):
   XX=              0.7759   YY=             -0.4041   ZZ=             -0.3718
   XY=              1.7718   XZ=              0.0000   YZ=              0.0000
 Octapole moment (field-independent basis, Debye-Ang**2):
  XXX=             -2.2502  YYY=             -1.3232  ZZZ=              0.0000  XYY=             -1.7912
  XXY=             -1.8990  XXZ=              0.0000  XZZ=             -0.1614  YZZ=              0.5710
  YYZ=              0.0000  XYZ=              0.0000
 Hexadecapole moment (field-independent basis, Debye-Ang**3):
 XXXX=             -8.8743 YYYY=            -36.4618 ZZZZ=             -8.0341 XXXY=              0.4945
 XXXZ=              0.0000 YYYX=              0.6823 YYYZ=              0.0000 ZZZX=              0.0000
 ZZZY=              0.0000 XXYY=             -7.4839 XXZZ=             -3.1146 YYZZ=             -7.8538
 XXYZ=              0.0000 YYXZ=              0.0000 ZZXY=             -0.2694
 N-N= 3.216306395203D+01 E-N=-4.211624727185D+02  KE= 1.501262036248D+02
 Symmetry A'   KE= 1.427937852132D+02
 Symmetry A"   KE= 7.332418411580D+00
 Symmetry A'   SP=-7.170155609690D-17
 Symmetry A"   SP= 1.000000000000D+00
                          Isotropic Fermi Contact Couplings
        Atom                 a.u.       MegaHertz       Gauss      10(-4) cm-1
     1  O(17)             -0.00000       0.00000       0.00000       0.00000
     2  H(1)              -0.00000      -0.00000      -0.00000      -0.00000
     3  O(17)              0.00000      -0.00000      -0.00000      -0.00000
 --------------------------------------------------------
       Center         ----  Spin Dipole Couplings  ----
                      3XX-RR        3YY-RR        3ZZ-RR
 --------------------------------------------------------
     1   Atom       -0.302187     -0.189895      0.492082
     2   Atom        0.012340      0.005691     -0.018031
     3   Atom       -1.927012     -1.918497      3.845509
 --------------------------------------------------------
                        XY            XZ            YZ
 --------------------------------------------------------
     1   Atom        0.000954      0.000000      0.000000
     2   Atom        0.028906      0.000000      0.000000
     3   Atom        0.000222      0.000000      0.000000
 --------------------------------------------------------


 ---------------------------------------------------------------------------------
              Anisotropic Spin Dipole Couplings in Principal Axis System
 ---------------------------------------------------------------------------------

       Atom             a.u.   MegaHertz   Gauss  10(-4) cm-1        Axes

              Baa    -0.3022    21.867     7.803     7.294  1.0000 -0.0085 -0.0000
     1 O(17)  Bbb    -0.1899    13.740     4.903     4.583  0.0085  1.0000  0.0000
              Bcc     0.4921   -35.607   -12.705   -11.877  0.0000  0.0000  1.0000
 
              Baa    -0.0201   -10.714    -3.823    -3.574 -0.6655  0.7464 -0.0000
     2 H(1)   Bbb    -0.0180    -9.621    -3.433    -3.209  0.0000  0.0000  1.0000
              Bcc     0.0381    20.335     7.256     6.783  0.7464  0.6655  0.0000
 
              Baa    -1.9270   139.438    49.755    46.511  0.9997 -0.0260 -0.0000
     3 O(17)  Bbb    -1.9185   138.821    49.535    46.306  0.0260  0.9997  0.0000
              Bcc     3.8455  -278.258   -99.290   -92.817  0.0000  0.0000  1.0000
 

 ---------------------------------------------------------------------------------

 1\1\GINC-GAMBA\SP\ROHF\Gen\H1O2(2)\IRIKURA\30-Sep-2023\0\\# rohf/gen g
 eom=check guess=check\\HO2, ROHF/cc-pVTZ-F12\\0,2\O,0,0.055255,-0.6092
 21,0.\H,0,-0.88408,-0.868356,0.\O,0,0.055255,0.717765,0.\\Version=ES64
 L-G16RevB.01\State=2-A"\HF=-150.2418095\RMSD=7.047e-09\Dipole=-0.68744
 98,-0.3443607,0.\Quadrupole=0.5768483,-0.3004423,-0.276406,1.3173099,0
 .,0.\PG=CS [SG(H1O2)]\\@


 IN-LAWS ARE LIKE SEEDS. YOU DON'T NEED THEM
 BUT THEY COME WITH THE TOMATO.
 Job cpu time:       0 days  0 hours  0 minutes 12.9 seconds.
 Elapsed time:       0 days  0 hours  0 minutes  3.5 seconds.
 File lengths (MBytes):  RWF=     10 Int=      0 D2E=      0 Chk=      3 Scr=      1
 Normal termination of Gaussian 16 at Sat Sep 30 20:48:15 2023.
