 Entering Gaussian System, Link 0=g16
 AtFile(1): pcseg2.gbs
            -H     0
            S   4   1.00
                  0.754732D+02           0.427821D-02
                  0.113575D+02           0.328672D-01
                  0.260081D+01           0.159578D+00
                  0.735503D+00           0.500000D+00
            S   1   1.00
                  0.231761D+00           1.0000000
            S   1   1.00
                  0.741675D-01           1.0000000
            P   1   1.00
                  0.160000D+01           1.0000000
            P   1   1.00
                  0.450000D+00           1.0000000
            D   1   1.00
                  0.125000D+01           1.0000000
            ****
            -C     0
            S   7   1.00
                  0.731999D+04           0.695369D-03
                  0.109818D+04           0.537138D-02
                  0.250014D+03           0.274734D-01
                  0.707586D+02           0.105078D+00
                  0.228595D+02           0.291262D+00
                  0.803936D+01           0.500000D+00
                  0.289309D+01           0.362224D+00
            S   2   1.00
                  0.521640D+01          -0.957844D-01
                  0.556124D+00           0.500000D+00
            S   1   1.00
                  0.228813D+00           1.0000000
            S   1   1.00
                  0.936338D-01           1.0000000
            P   4   1.00
                  0.339855D+02           0.818395D-02
                  0.772957D+01           0.586921D-01
                  0.224954D+01           0.222514D+00
                  0.767681D+00           0.500000D+00
            P   1   1.00
                  0.263283D+00           1.0000000
            P   1   1.00
                  0.848744D-01           1.0000000
            D   1   1.00
                  0.140000D+01           1.0000000
            D   1   1.00
                  0.450000D+00           1.0000000
            F   1   1.00
                  0.950000D+00           1.0000000
            ****
            -O     0
            S   7   1.00
                  0.135887D+05           0.665492D-03
                  0.203847D+04           0.514222D-02
                  0.464041D+03           0.263472D-01
                  0.131339D+03           0.101500D+00
                  0.425340D+02           0.285877D+00
                  0.150429D+02           0.500000D+00
                  0.546616D+01           0.368211D+00
            S   2   1.00
                  0.100915D+02          -0.100084D+00
                  0.110429D+01           0.500000D+00
            S   1   1.00
                  0.448082D+00           1.0000000
            S   1   1.00
                  0.175325D+00           1.0000000
            P   4   1.00
                  0.608220D+02           0.908253D-02
                  0.140332D+02           0.645878D-01
                  0.418244D+01           0.241502D+00
                  0.142490D+01           0.500000D+00
            P   1   1.00
                  0.478741D+00           1.0000000
            P   1   1.00
                  0.146257D+00           1.0000000
            D   1   1.00
                  0.220000D+01           1.0000000
            D   1   1.00
                  0.650000D+00           1.0000000
            F   1   1.00
                  0.110000D+01           1.0000000
            ****
            -N     0
            S   7   1.00
                  0.101643D+05           0.682757D-03
                  0.152481D+04           0.527488D-02
                  0.347119D+03           0.270037D-01
                  0.982389D+02           0.103673D+00
                  0.317799D+02           0.289575D+00
                  0.112240D+02           0.500000D+00
                  0.406611D+01           0.364621D+00
            S   2   1.00
                  0.747898D+01          -0.975681D-01
                  0.805040D+00           0.500000D+00
            S   1   1.00
                  0.324626D+00           1.0000000
            S   1   1.00
                  0.128132D+00           1.0000000
            P   4   1.00
                  0.482704D+02           0.829547D-02
                  0.110815D+02           0.596223D-01
                  0.326643D+01           0.227889D+00
                  0.111680D+01           0.500000D+00
            P   1   1.00
                  0.382049D+00           1.0000000
            P   1   1.00
                  0.121222D+00           1.0000000
            D   1   1.00
                  0.180000D+01           1.0000000
            D   1   1.00
                  0.550000D+00           1.0000000
            F   1   1.00
                  0.102000D+01           1.0000000
            ****
            -F     0
            S   7   1.00
                  0.174507D+05           0.655972D-03
                  0.261768D+04           0.506944D-02
                  0.595857D+03           0.259899D-01
                  0.168651D+03           0.100353D+00
                  0.546654D+02           0.284095D+00
                  0.193717D+02           0.500000D+00
                  0.706202D+01           0.370721D+00
            S   2   1.00
                  0.131197D+02          -0.101997D+00
                  0.145046D+01           0.500000D+00
            S   1   1.00
                  0.588255D+00           1.0000000
            S   1   1.00
                  0.227960D+00           1.0000000
            P   4   1.00
                  0.779407D+02           0.931135D-02
                  0.180425D+02           0.663964D-01
                  0.542342D+01           0.246386D+00
                  0.184876D+01           0.500000D+00
            P   1   1.00
                  0.617455D+00           1.0000000
            P   1   1.00
                  0.185496D+00           1.0000000
            D   1   1.00
                  0.280000D+01           1.0000000
            D   1   1.00
                  0.800000D+00           1.0000000
            F   1   1.00
                  0.120000D+01           1.0000000
            ****
            -Cl     0
            S   8   1.00
                  0.154272D+06           0.222473D-03
                  0.231232D+05           0.172590D-02
                  0.526257D+04           0.899286D-02
                  0.148995D+04           0.367724D-01
                  0.485417D+03           0.121446D+00
                  0.174634D+03           0.304148D+00
                  0.672393D+02           0.500000D+00
                  0.265780D+02           0.360252D+00
            S   3   1.00
                  0.131826D+03          -0.531330D-01
                  0.400703D+02          -0.233346D+00
                  0.789448D+01           0.500000D+00
            S   2   1.00
                  0.427711D+01           0.500000D+00
                  0.196233D+01           0.370517D+00
            S   1   1.00
                  0.520793D+00           1.0000000
            S   1   1.00
                  0.181633D+00           1.0000000
            P   7   1.00
                  0.124440D+04           0.988206D-03
                  0.295109D+03           0.829674D-02
                  0.947224D+02           0.430906D-01
                  0.352588D+02           0.148443D+00
                  0.144211D+02           0.344744D+00
                  0.610371D+01           0.500000D+00
                  0.258886D+01           0.348278D+00
            P   2   1.00
                  0.109447D+02          -0.196768D-01
                  0.104413D+01           0.500000D+00
            P   1   1.00
                  0.376184D+00           1.0000000
            P   1   1.00
                  0.120613D+00           1.0000000
            D   1   1.00
                  0.231000D+01           1.0000000
            D   1   1.00
                  0.520000D+00           1.0000000
            F   1   1.00
                  0.720000D+00           1.0000000
            ****
            -S     0
            S   8   1.00
                  0.134700D+06           0.226231D-03
                  0.201904D+05           0.175488D-02
                  0.459528D+04           0.914190D-02
                  0.130109D+04           0.373551D-01
                  0.423902D+03           0.123121D+00
                  0.152485D+03           0.306801D+00
                  0.586925D+02           0.500000D+00
                  0.231461D+02           0.354358D+00
            S   3   1.00
                  0.116327D+03          -0.491772D-01
                  0.352841D+02          -0.215962D+00
                  0.677831D+01           0.500000D+00
            S   2   1.00
                  0.360404D+01           0.500000D+00
                  0.164871D+01           0.366278D+00
            S   1   1.00
                  0.421821D+00           1.0000000
            S   1   1.00
                  0.147554D+00           1.0000000
            P   7   1.00
                  0.104863D+04           0.105273D-02
                  0.248717D+03           0.879338D-02
                  0.797887D+02           0.453358D-01
                  0.296023D+02           0.154476D+00
                  0.120627D+02           0.352366D+00
                  0.507628D+01           0.500000D+00
                  0.213375D+01           0.346429D+00
            P   2   1.00
                  0.928958D+01          -0.185932D-01
                  0.837819D+00           0.500000D+00
            P   1   1.00
                  0.301495D+00           1.0000000
            P   1   1.00
                  0.974740D-01           1.0000000
            D   1   1.00
                  0.210000D+01           1.0000000
            D   1   1.00
                  0.480000D+00           1.0000000
            F   1   1.00
                  0.660000D+00           1.0000000
            ****
            -Br     0
            S    10   1.00
                  0.233625D+07           0.532336D-04
                  0.349961D+06           0.413715D-03
                  0.796444D+05           0.217123D-02
                  0.225555D+05           0.910109D-02
                  0.735546D+04           0.323789D-01
                  0.265352D+04           0.988755D-01
                  0.103517D+04           0.248138D+00
                  0.422205D+03           0.474328D+00
                  0.180035D+03           0.500000D+00
                  0.793308D+02           0.187769D+00
            S    4   1.00
                  0.620834D+03          -0.226511D-01
                  0.190829D+03          -0.109497D+00
                  0.312505D+02           0.500000D+00
                  0.135270D+02           0.492812D+00
            S    2   1.00
                  0.216097D+02          -0.165418D+00
                  0.372566D+01           0.500000D+00
            S    1   1.00
                  0.169770D+01           1.0000000
            S    1   1.00
                  0.489332D+00           1.0000000
            S    1   1.00
                  0.175712D+00           1.0000000
            P    8   1.00
                  0.960829D+04           0.478974D-03
                  0.227618D+04           0.417853D-02
                  0.736723D+03           0.229315D-01
                  0.281579D+03           0.892653D-01
                  0.118395D+03           0.255288D+00
                  0.527481D+02           0.479074D+00
                  0.245098D+02           0.500000D+00
                  0.112009D+02           0.200944D+00
            P    4   1.00
                  0.587849D+02          -0.189674D-01
                  0.918962D+01           0.264104D+00
                  0.413895D+01           0.500000D+00
                  0.184225D+01           0.319316D+00
            P    1   1.00
                  0.713862D+00           1.0000000
            P    1   1.00
                  0.274232D+00           1.0000000
            P    1   1.00
                  0.944411D-01           1.0000000
            D    7   1.00
                  0.398470D+03           0.204066D-02
                  0.118967D+03           0.175171D-01
                  0.450197D+02           0.829708D-01
                  0.190320D+02           0.236284D+00
                  0.855686D+01           0.428468D+00
                  0.382950D+01           0.500000D+00
                  0.166291D+01           0.349360D+00
            D    1   1.00
                  0.672953D+00           1.0000000
            D    1   1.00
                  0.252000D+00           1.0000000
            F    1   1.00
                  0.530000D+00           1.0000000
            ****
            -Si     0
            S    8   1.00
                  0.996133D+05           0.235546D-03
                  0.149311D+05           0.182707D-02
                  0.339820D+04           0.951425D-02
                  0.962140D+03           0.388172D-01
                  0.313430D+03           0.127328D+00
                  0.112683D+03           0.313522D+00
                  0.433372D+02           0.500000D+00
                  0.170029D+02           0.340347D+00
            S    3   1.00
                  0.884208D+02          -0.404451D-01
                  0.266756D+02          -0.178059D+00
                  0.479640D+01           0.500000D+00
            S    2   1.00
                  0.239385D+01           0.500000D+00
                  0.108333D+01           0.338016D+00
            S    1   1.00
                  0.252420D+00           1.0000000
            S    1   1.00
                  0.891210D-01           1.0000000
            P    7   1.00
                  0.709901D+03           0.123028D-02
                  0.168426D+03           0.101366D-01
                  0.539946D+02           0.511840D-01
                  0.198646D+02           0.169967D+00
                  0.801369D+01           0.370717D+00
                  0.331870D+01           0.500000D+00
                  0.136112D+01           0.344128D+00
            P    2   1.00
                  0.622158D+01          -0.166609D-01
                  0.503049D+00           0.500000D+00
            P    1   1.00
                  0.179848D+00           1.0000000
            P    1   1.00
                  0.591912D-01           1.0000000
            D    1   1.00
                  0.168000D+01           1.0000000
            D    1   1.00
                  0.380000D+00           1.0000000
            F    1   1.00
                  0.540000D+00           1.0000000
            ****
            -P     0
            S    8   1.00
                  0.116416D+06           0.230715D-03
                  0.174500D+05           0.178960D-02
                  0.397149D+04           0.932116D-02
                  0.112447D+04           0.380591D-01
                  0.366347D+03           0.125148D+00
                  0.131757D+03           0.310022D+00
                  0.506988D+02           0.500000D+00
                  0.199436D+02           0.347528D+00
            S    3   1.00
                  0.101878D+03          -0.446755D-01
                  0.308249D+02          -0.196376D+00
                  0.573688D+01           0.500000D+00
            S    2   1.00
                  0.296868D+01           0.500000D+00
                  0.135315D+01           0.355098D+00
            S    1   1.00
                  0.332196D+00           1.0000000
            S    1   1.00
                  0.116229D+00           1.0000000
            P    7   1.00
                  0.873928D+03           0.112375D-02
                  0.207298D+03           0.933330D-02
                  0.664628D+02           0.477213D-01
                  0.245665D+02           0.160733D+00
                  0.996820D+01           0.359760D+00
                  0.416536D+01           0.500000D+00
                  0.173022D+01           0.346593D+00
            P    2   1.00
                  0.772530D+01          -0.175718D-01
                  0.657252D+00           0.500000D+00
            P    1   1.00
                  0.239903D+00           1.0000000
            P    1   1.00
                  0.800988D-01           1.0000000
            D    1   1.00
                  0.189000D+01           1.0000000
            D    1   1.00
                  0.430000D+00           1.0000000
            F    1   1.00
                  0.600000D+00           1.0000000
            ****
            
 Initial command:
 /usr/local/apps/g16_b01_avx/g16/l1.exe "/wrk/irikura/Gau-1825419.inp" -scrdir="/wrk/irikura/"
 Entering Link 1 = /usr/local/apps/g16_b01_avx/g16/l1.exe PID=   1825421.
  
 Copyright (c) 1988-2017, Gaussian, Inc.  All Rights Reserved.
  
 This is part of the Gaussian(R) 16 program.  It is based on
 the Gaussian(R) 09 system (copyright 2009, Gaussian, Inc.),
 the Gaussian(R) 03 system (copyright 2003, Gaussian, Inc.),
 the Gaussian(R) 98 system (copyright 1998, Gaussian, Inc.),
 the Gaussian(R) 94 system (copyright 1995, Gaussian, Inc.),
 the Gaussian 92(TM) system (copyright 1992, Gaussian, Inc.),
 the Gaussian 90(TM) system (copyright 1990, Gaussian, Inc.),
 the Gaussian 88(TM) system (copyright 1988, Gaussian, Inc.),
 the Gaussian 86(TM) system (copyright 1986, Carnegie Mellon
 University), and the Gaussian 82(TM) system (copyright 1983,
 Carnegie Mellon University). Gaussian is a federally registered
 trademark of Gaussian, Inc.
  
 This software contains proprietary and confidential information,
 including trade secrets, belonging to Gaussian, Inc.
  
 This software is provided under written license and may be
 used, copied, transmitted, or stored only in accord with that
 written license.
  
 The following legend is applicable only to US Government
 contracts under FAR:
  
                    RESTRICTED RIGHTS LEGEND
  
 Use, reproduction and disclosure by the US Government is
 subject to restrictions as set forth in subparagraphs (a)
 and (c) of the Commercial Computer Software - Restricted
 Rights clause in FAR 52.227-19.
  
 Gaussian, Inc.
 340 Quinnipiac St., Bldg. 40, Wallingford CT 06492
  
  
 ---------------------------------------------------------------
 Warning -- This program may not be used in any manner that
 competes with the business of Gaussian, Inc. or will provide
 assistance to any competitor of Gaussian, Inc.  The licensee
 of this program is prohibited from giving any competitor of
 Gaussian, Inc. access to this program.  By using this program,
 the user acknowledges that Gaussian, Inc. is engaged in the
 business of creating and licensing software in the field of
 computational chemistry and represents and warrants to the
 licensee that it is not a competitor of Gaussian, Inc. and that
 it will not use this program in any manner prohibited above.
 ---------------------------------------------------------------
  

 Cite this work as:
 Gaussian 16, Revision B.01,
 M. J. Frisch, G. W. Trucks, H. B. Schlegel, G. E. Scuseria, 
 M. A. Robb, J. R. Cheeseman, G. Scalmani, V. Barone, 
 G. A. Petersson, H. Nakatsuji, X. Li, M. Caricato, A. V. Marenich, 
 J. Bloino, B. G. Janesko, R. Gomperts, B. Mennucci, H. P. Hratchian, 
 J. V. Ortiz, A. F. Izmaylov, J. L. Sonnenberg, D. Williams-Young, 
 F. Ding, F. Lipparini, F. Egidi, J. Goings, B. Peng, A. Petrone, 
 T. Henderson, D. Ranasinghe, V. G. Zakrzewski, J. Gao, N. Rega, 
 G. Zheng, W. Liang, M. Hada, M. Ehara, K. Toyota, R. Fukuda, 
 J. Hasegawa, M. Ishida, T. Nakajima, Y. Honda, O. Kitao, H. Nakai, 
 T. Vreven, K. Throssell, J. A. Montgomery, Jr., J. E. Peralta, 
 F. Ogliaro, M. J. Bearpark, J. J. Heyd, E. N. Brothers, K. N. Kudin, 
 V. N. Staroverov, T. A. Keith, R. Kobayashi, J. Normand, 
 K. Raghavachari, A. P. Rendell, J. C. Burant, S. S. Iyengar, 
 J. Tomasi, M. Cossi, J. M. Millam, M. Klene, C. Adamo, R. Cammi, 
 J. W. Ochterski, R. L. Martin, K. Morokuma, O. Farkas, 
 J. B. Foresman, and D. J. Fox, Gaussian, Inc., Wallingford CT, 2016.
 
 ******************************************
 Gaussian 16:  ES64L-G16RevB.01 20-Dec-2017
                27-Sep-2023 
 ******************************************
 %chk=hoclo.chk
 %mem=500mw
 %nprocs=4
 Will use up to    4 processors via shared memory.
 ---------------------------------------
 # b3lyp/gen opt freq CPHF(Grid=OneStep)
 ---------------------------------------
 1/18=20,19=15,26=3,38=1/1,3;
 2/9=110,12=2,17=6,18=5,40=1/2;
 3/5=7,11=2,25=1,30=1,71=1,74=-5/1,2,3;
 4//1;
 5/5=2,38=5/2;
 6/7=2,8=2,9=2,10=2,28=1/1;
 7//1,2,3,16;
 1/18=20,19=15,26=3/3(2);
 2/9=110/2;
 99//99;
 2/9=110/2;
 3/5=7,6=1,11=2,25=1,30=1,71=1,74=-5,82=7/1,2,3;
 4/5=5,16=3,69=1/1;
 5/5=2,38=5/2;
 7//1,2,3,16;
 1/18=20,19=15,26=3/3(-5);
 2/9=110/2;
 6/7=2,8=2,9=2,10=2,19=2,28=1/1;
 99/9=1/99;
 ----------------------------
 chlorous acid, B3LYP/pcseg-2
 ----------------------------
 Symbolic Z-matrix:
 Charge =  0 Multiplicity = 1
 Cl                   -0.1431   -0.44845   0.01837 
 O                     1.39064   0.31715  -0.11885 
 O                    -1.28237   0.55229  -0.01608 
 H                     1.56658   0.66812   0.76722 
 

 GradGradGradGradGradGradGradGradGradGradGradGradGradGradGradGradGradGrad
 Berny optimization.
 Initialization pass.
                           ----------------------------
                           !    Initial Parameters    !
                           ! (Angstroms and Degrees)  !
 --------------------------                            --------------------------
 ! Name  Definition              Value          Derivative Info.                !
 --------------------------------------------------------------------------------
 ! R1    R(1,2)                  1.7197         estimate D2E/DX2                !
 ! R2    R(1,3)                  1.5168         estimate D2E/DX2                !
 ! R3    R(2,4)                  0.9692         estimate D2E/DX2                !
 ! A1    A(2,1,3)              111.9844         estimate D2E/DX2                !
 ! A2    A(1,2,4)              104.4887         estimate D2E/DX2                !
 ! D1    D(3,1,2,4)             78.7295         estimate D2E/DX2                !
 --------------------------------------------------------------------------------
 Trust Radius=3.00D-01 FncErr=1.00D-07 GrdErr=1.00D-06 EigMax=2.50D+02 EigMin=1.00D-04
 Number of steps in this run=     20 maximum allowed number of steps=    100.
 GradGradGradGradGradGradGradGradGradGradGradGradGradGradGradGradGradGrad

                          Input orientation:                          
 ---------------------------------------------------------------------
 Center     Atomic      Atomic             Coordinates (Angstroms)
 Number     Number       Type             X           Y           Z
 ---------------------------------------------------------------------
      1         17           0       -0.143099   -0.448449    0.018365
      2          8           0        1.390635    0.317150   -0.118849
      3          8           0       -1.282373    0.552288   -0.016080
      4          1           0        1.566581    0.668119    0.767222
 ---------------------------------------------------------------------
                    Distance matrix (angstroms):
                    1          2          3          4
     1  Cl   0.000000
     2  O    1.719683   0.000000
     3  O    1.516775   2.685298   0.000000
     4  H    2.174975   0.969153   2.956944   0.000000
 Stoichiometry    ClHO2
 Framework group  C1[X(ClHO2)]
 Deg. of freedom     6
 Full point group                 C1      NOp   1
 Largest Abelian subgroup         C1      NOp   1
 Largest concise Abelian subgroup C1      NOp   1
                         Standard orientation:                         
 ---------------------------------------------------------------------
 Center     Atomic      Atomic             Coordinates (Angstroms)
 Number     Number       Type             X           Y           Z
 ---------------------------------------------------------------------
      1         17           0       -0.143099   -0.448449    0.018365
      2          8           0        1.390635    0.317150   -0.118849
      3          8           0       -1.282373    0.552288   -0.016080
      4          1           0        1.566581    0.668119    0.767222
 ---------------------------------------------------------------------
 Rotational constants (GHZ):          34.3019319           8.2567691           6.7943471
 General basis read from cards:  (5D, 7F)
 There are   124 symmetry adapted cartesian basis functions of A   symmetry.
 There are   108 symmetry adapted basis functions of A   symmetry.
   108 basis functions,   190 primitive gaussians,   124 cartesian basis functions
    17 alpha electrons       17 beta electrons
       nuclear repulsion energy       111.8458705750 Hartrees.
 NAtoms=    4 NActive=    4 NUniq=    4 SFac= 1.00D+00 NAtFMM=   60 NAOKFM=F Big=F
 Integral buffers will be    131072 words long.
 Raffenetti 2 integral format.
 Two-electron integral symmetry is turned on.
 One-electron integrals computed using PRISM.
 NBasis=   108 RedAO= T EigKep=  4.85D-03  NBF=   108
 NBsUse=   108 1.00D-06 EigRej= -1.00D+00 NBFU=   108
 ExpMin= 7.42D-02 ExpMax= 1.54D+05 ExpMxC= 1.49D+03 IAcc=3 IRadAn=         5 AccDes= 0.00D+00
 Harris functional with IExCor=  402 and IRadAn=       5 diagonalized for initial guess.
 HarFok:  IExCor=  402 AccDes= 0.00D+00 IRadAn=         5 IDoV= 1 UseB2=F ITyADJ=14
 ICtDFT=  3500011 ScaDFX=  1.000000  1.000000  1.000000  1.000000
 FoFCou: FMM=F IPFlag=           0 FMFlag=      100000 FMFlg1=           0
         NFxFlg=           0 DoJE=T BraDBF=F KetDBF=T FulRan=T
         wScrn=  0.000000 ICntrl=       500 IOpCl=  0 I1Cent=   200000004 NGrid=           0
         NMat0=    1 NMatS0=      1 NMatT0=    0 NMatD0=    1 NMtDS0=    0 NMtDT0=    0
 Petite list used in FoFCou.
 Keep R1 ints in memory in canonical form, NReq=21131371.
 Requested convergence on RMS density matrix=1.00D-08 within 128 cycles.
 Requested convergence on MAX density matrix=1.00D-06.
 Requested convergence on             energy=1.00D-06.
 No special actions if energy rises.
 Integral accuracy reduced to 1.0D-05 until final iterations.
 Initial convergence to 1.0D-05 achieved.  Increase integral accuracy.
 SCF Done:  E(RB3LYP) =  -611.182101886     A.U. after   14 cycles
            NFock= 14  Conv=0.38D-08     -V/T= 2.0014

 **********************************************************************

            Population analysis using the SCF Density.

 **********************************************************************

 Orbital symmetries:
       Occupied  (A) (A) (A) (A) (A) (A) (A) (A) (A) (A) (A) (A)
                 (A) (A) (A) (A) (A)
       Virtual   (A) (A) (A) (A) (A) (A) (A) (A) (A) (A) (A) (A)
                 (A) (A) (A) (A) (A) (A) (A) (A) (A) (A) (A) (A)
                 (A) (A) (A) (A) (A) (A) (A) (A) (A) (A) (A) (A)
                 (A) (A) (A) (A) (A) (A) (A) (A) (A) (A) (A) (A)
                 (A) (A) (A) (A) (A) (A) (A) (A) (A) (A) (A) (A)
                 (A) (A) (A) (A) (A) (A) (A) (A) (A) (A) (A) (A)
                 (A) (A) (A) (A) (A) (A) (A) (A) (A) (A) (A) (A)
                 (A) (A) (A) (A) (A) (A) (A)
 The electronic state is 1-A.
 Alpha  occ. eigenvalues -- -101.67906 -19.20946 -19.15463  -9.60769  -7.37153
 Alpha  occ. eigenvalues --   -7.36600  -7.35628  -1.13203  -1.04527  -0.78478
 Alpha  occ. eigenvalues --   -0.57101  -0.50361  -0.49048  -0.43369  -0.37430
 Alpha  occ. eigenvalues --   -0.33631  -0.26518
 Alpha virt. eigenvalues --   -0.09402  -0.01367   0.00295   0.21635   0.25325
 Alpha virt. eigenvalues --    0.26695   0.28967   0.30788   0.32017   0.33077
 Alpha virt. eigenvalues --    0.35316   0.37194   0.44144   0.45007   0.49889
 Alpha virt. eigenvalues --    0.51717   0.53262   0.54958   0.69077   0.76200
 Alpha virt. eigenvalues --    0.79575   0.89516   0.98477   1.14146   1.36998
 Alpha virt. eigenvalues --    1.39150   1.43510   1.46900   1.58193   1.65474
 Alpha virt. eigenvalues --    1.69328   1.73981   1.78282   1.88126   1.92819
 Alpha virt. eigenvalues --    2.06609   2.07627   2.09769   2.11231   2.11827
 Alpha virt. eigenvalues --    2.15553   2.18531   2.21633   2.35177   2.36949
 Alpha virt. eigenvalues --    2.46978   2.56249   2.59185   2.66712   2.79584
 Alpha virt. eigenvalues --    3.09903   3.35332   3.41105   3.47751   3.51474
 Alpha virt. eigenvalues --    3.55401   3.57905   3.66698   3.70799   3.91435
 Alpha virt. eigenvalues --    3.93817   3.99066   3.99504   4.04763   4.10391
 Alpha virt. eigenvalues --    4.17017   4.27497   4.34683   4.42884   4.44749
 Alpha virt. eigenvalues --    4.51664   4.56572   4.60863   4.66801   4.89013
 Alpha virt. eigenvalues --    4.99746   5.61643   5.98982   6.01276   6.02704
 Alpha virt. eigenvalues --    6.03617   6.13625   6.18904   6.27625   6.33602
 Alpha virt. eigenvalues --    6.35160   6.52815   6.71385   7.04474   7.13384
 Alpha virt. eigenvalues --   34.62765
          Condensed to atoms (all electrons):
               1          2          3          4
     1  Cl  16.350028   0.033620   0.075672  -0.014257
     2  O    0.033620   8.007637  -0.044872   0.311826
     3  O    0.075672  -0.044872   8.417056   0.005921
     4  H   -0.014257   0.311826   0.005921   0.489461
 Mulliken charges:
               1
     1  Cl   0.554938
     2  O   -0.308210
     3  O   -0.453777
     4  H    0.207049
 Sum of Mulliken charges =  -0.00000
 Mulliken charges with hydrogens summed into heavy atoms:
               1
     1  Cl   0.554938
     2  O   -0.101161
     3  O   -0.453777
 Electronic spatial extent (au):  <R**2>=            193.2857
 Charge=             -0.0000 electrons
 Dipole moment (field-independent basis, Debye):
    X=              1.9217    Y=             -1.3160    Z=              1.5920  Tot=              2.8212
 Quadrupole moment (field-independent basis, Debye-Ang):
   XX=            -25.8856   YY=            -22.8959   ZZ=            -22.6756
   XY=              2.7928   XZ=              2.6297   YZ=              1.2075
 Traceless Quadrupole moment (field-independent basis, Debye-Ang):
   XX=             -2.0665   YY=              0.9231   ZZ=              1.1434
   XY=              2.7928   XZ=              2.6297   YZ=              1.2075
 Octapole moment (field-independent basis, Debye-Ang**2):
  XXX=              5.3994  YYY=             -1.5699  ZZZ=              1.4319  XYY=              1.7059
  XXY=             -0.2259  XXZ=              4.5527  XZZ=              2.6808  YZZ=              0.8006
  YYZ=              1.1073  XYZ=              1.9850
 Hexadecapole moment (field-independent basis, Debye-Ang**3):
 XXXX=           -154.7510 YYYY=            -50.0451 ZZZZ=            -23.6850 XXXY=              7.4267
 XXXZ=              7.6957 YYYX=              2.2554 YYYZ=              0.9215 ZZZX=              2.5611
 ZZZY=              1.3289 XXYY=            -32.2538 XXZZ=            -27.6032 YYZZ=            -12.6741
 XXYZ=              3.1045 YYXZ=              1.7023 ZZXY=              2.1007
 N-N= 1.118458705750D+02 E-N=-1.674691607408D+03  KE= 6.103266624582D+02
 Calling FoFJK, ICntrl=      2127 FMM=F ISym2X=0 I1Cent= 0 IOpClX= 0 NMat=1 NMatS=1 NMatT=0.
 ***** Axes restored to original set *****
 -------------------------------------------------------------------
 Center     Atomic                   Forces (Hartrees/Bohr)
 Number     Number              X              Y              Z
 -------------------------------------------------------------------
      1       17           0.000198529    0.000108538   -0.000105551
      2        8          -0.000370559   -0.000131065    0.000172828
      3        8           0.000088751   -0.000023190    0.000011608
      4        1           0.000083279    0.000045718   -0.000078885
 -------------------------------------------------------------------
 Cartesian Forces:  Max     0.000370559 RMS     0.000150137

 GradGradGradGradGradGradGradGradGradGradGradGradGradGradGradGradGradGrad
 Berny optimization.
 FormGI is forming the generalized inverse of G from B-inverse, IUseBI=4.
 Internal  Forces:  Max     0.000301500 RMS     0.000163361
 Search for a local minimum.
 Step number   1 out of a maximum of   20
 All quantities printed in internal units (Hartrees-Bohrs-Radians)
 Mixed Optimization -- En-DIIS/RFO-DIIS
 Second derivative matrix not updated -- first step.
 The second derivative matrix:
                          R1        R2        R3        A1        A2
           R1           0.33622
           R2           0.00000   0.71379
           R3           0.00000   0.00000   0.53550
           A1           0.00000   0.00000   0.00000   0.25000
           A2           0.00000   0.00000   0.00000   0.00000   0.16000
           D1           0.00000   0.00000   0.00000   0.00000   0.00000
                          D1
           D1           0.00374
 ITU=  0
     Eigenvalues ---    0.00374   0.16000   0.25000   0.33622   0.53550
     Eigenvalues ---    0.71379
 RFO step:  Lambda=-1.01829077D-06 EMin= 3.74140779D-03
 Linear search not attempted -- first point.
 Iteration  1 RMS(Cart)=  0.00434414 RMS(Int)=  0.00001551
 Iteration  2 RMS(Cart)=  0.00001189 RMS(Int)=  0.00000000
 Iteration  3 RMS(Cart)=  0.00000000 RMS(Int)=  0.00000000
 Variable       Old X    -DE/DX   Delta X   Delta X   Delta X     New X
                                 (Linear)    (Quad)   (Total)
    R1        3.24973  -0.00030   0.00000  -0.00090  -0.00090   3.24883
    R2        2.86629  -0.00008   0.00000  -0.00011  -0.00011   2.86618
    R3        1.83143  -0.00004   0.00000  -0.00008  -0.00008   1.83136
    A1        1.95450  -0.00012   0.00000  -0.00047  -0.00047   1.95402
    A2        1.82367   0.00021   0.00000   0.00133   0.00133   1.82500
    D1        1.37409  -0.00004   0.00000  -0.01028  -0.01028   1.36381
         Item               Value     Threshold  Converged?
 Maximum Force            0.000302     0.000450     YES
 RMS     Force            0.000163     0.000300     YES
 Maximum Displacement     0.004539     0.001800     NO 
 RMS     Displacement     0.004341     0.001200     NO 
 Predicted change in Energy=-5.091454D-07
 GradGradGradGradGradGradGradGradGradGradGradGradGradGradGradGradGradGrad

                          Input orientation:                          
 ---------------------------------------------------------------------
 Center     Atomic      Atomic             Coordinates (Angstroms)
 Number     Number       Type             X           Y           Z
 ---------------------------------------------------------------------
      1         17           0       -0.143019   -0.449440    0.016018
      2          8           0        1.391124    0.314841   -0.117982
      3          8           0       -1.280674    0.553186   -0.014085
      4          1           0        1.564314    0.670521    0.766707
 ---------------------------------------------------------------------
                    Distance matrix (angstroms):
                    1          2          3          4
     1  Cl   0.000000
     2  O    1.719208   0.000000
     3  O    1.516715   2.684419   0.000000
     4  H    2.175508   0.969112   2.952518   0.000000
 Stoichiometry    ClHO2
 Framework group  C1[X(ClHO2)]
 Deg. of freedom     6
 Full point group                 C1      NOp   1
 Largest Abelian subgroup         C1      NOp   1
 Largest concise Abelian subgroup C1      NOp   1
                         Standard orientation:                         
 ---------------------------------------------------------------------
 Center     Atomic      Atomic             Coordinates (Angstroms)
 Number     Number       Type             X           Y           Z
 ---------------------------------------------------------------------
      1         17           0       -0.143103   -0.448725    0.018745
      2          8           0        1.390380    0.316273   -0.118678
      3          8           0       -1.281662    0.552700   -0.016688
      4          1           0        1.563007    0.676542    0.764263
 ---------------------------------------------------------------------
 Rotational constants (GHZ):          34.2702086           8.2642975           6.7973897
 Basis read from rwf:  (5D, 7F)
 There are   124 symmetry adapted cartesian basis functions of A   symmetry.
 There are   108 symmetry adapted basis functions of A   symmetry.
   108 basis functions,   190 primitive gaussians,   124 cartesian basis functions
    17 alpha electrons       17 beta electrons
       nuclear repulsion energy       111.8647566590 Hartrees.
 NAtoms=    4 NActive=    4 NUniq=    4 SFac= 1.00D+00 NAtFMM=   60 NAOKFM=F Big=F
 Integral buffers will be    131072 words long.
 Raffenetti 2 integral format.
 Two-electron integral symmetry is turned on.
 One-electron integrals computed using PRISM.
 NBasis=   108 RedAO= T EigKep=  4.85D-03  NBF=   108
 NBsUse=   108 1.00D-06 EigRej= -1.00D+00 NBFU=   108
 Initial guess from the checkpoint file:  "hoclo.chk"
 B after Tr=    -0.000000   -0.000000   -0.000000
         Rot=    1.000000    0.000913    0.000081    0.000003 Ang=   0.10 deg.
 Keep R1 ints in memory in canonical form, NReq=21131371.
 Requested convergence on RMS density matrix=1.00D-08 within 128 cycles.
 Requested convergence on MAX density matrix=1.00D-06.
 Requested convergence on             energy=1.00D-06.
 No special actions if energy rises.
 SCF Done:  E(RB3LYP) =  -611.182101790     A.U. after    9 cycles
            NFock=  9  Conv=0.60D-08     -V/T= 2.0014
 Calling FoFJK, ICntrl=      2127 FMM=F ISym2X=0 I1Cent= 0 IOpClX= 0 NMat=1 NMatS=1 NMatT=0.
 ***** Axes restored to original set *****
 -------------------------------------------------------------------
 Center     Atomic                   Forces (Hartrees/Bohr)
 Number     Number              X              Y              Z
 -------------------------------------------------------------------
      1       17           0.000213470    0.000098357    0.000047891
      2        8          -0.000247770   -0.000038236   -0.000042514
      3        8          -0.000006234   -0.000005797   -0.000050932
      4        1           0.000040534   -0.000054324    0.000045555
 -------------------------------------------------------------------
 Cartesian Forces:  Max     0.000247770 RMS     0.000104695

 GradGradGradGradGradGradGradGradGradGradGradGradGradGradGradGradGradGrad
 Berny optimization.
 Using GEDIIS/GDIIS optimizer.
 FormGI is forming the generalized inverse of G from B-inverse, IUseBI=4.
 Internal  Forces:  Max     0.000226107 RMS     0.000108101
 Search for a local minimum.
 Step number   2 out of a maximum of   20
 All quantities printed in internal units (Hartrees-Bohrs-Radians)
 Mixed Optimization -- En-DIIS/RFO-DIIS
 Swapping is turned off.
 Update second derivatives using D2CorX and points    1    2
 DE=  9.61D-08 DEPred=-5.09D-07 R=-1.89D-01
 Trust test=-1.89D-01 RLast= 1.04D-02 DXMaxT set to 1.50D-01
 The second derivative matrix:
                          R1        R2        R3        A1        A2
           R1           0.24951
           R2          -0.02122   0.71050
           R3          -0.01010  -0.00072   0.53595
           A1          -0.03067  -0.00464  -0.00093   0.24346
           A2           0.05598   0.00909   0.00227   0.01286   0.13503
           D1          -0.00546   0.00355   0.00387   0.00542  -0.00831
                          D1
           D1           0.01593
 ITU= -1  0
     Eigenvalues ---    0.01512   0.10788   0.23342   0.28604   0.53633
     Eigenvalues ---    0.71159
 En-DIIS/RFO-DIIS/Sim-DIIS IScMMF=       -3 using points:     2    1
 RFO step:  Lambda=-1.41340184D-06.
 DidBck=T Rises=F RFO-DIIS coefs:    0.18868    0.81132
 Iteration  1 RMS(Cart)=  0.00368952 RMS(Int)=  0.00001353
 Iteration  2 RMS(Cart)=  0.00000991 RMS(Int)=  0.00000000
 Iteration  3 RMS(Cart)=  0.00000000 RMS(Int)=  0.00000000
 Variable       Old X    -DE/DX   Delta X   Delta X   Delta X     New X
                                 (Linear)    (Quad)   (Total)
    R1        3.24883  -0.00023   0.00073  -0.00172  -0.00100   3.24784
    R2        2.86618   0.00000   0.00009  -0.00018  -0.00009   2.86609
    R3        1.83136   0.00003   0.00006  -0.00010  -0.00004   1.83132
    A1        1.95402   0.00001   0.00038  -0.00073  -0.00035   1.95368
    A2        1.82500   0.00001  -0.00108   0.00211   0.00103   1.82604
    D1        1.36381   0.00013   0.00834   0.00046   0.00880   1.37261
         Item               Value     Threshold  Converged?
 Maximum Force            0.000226     0.000450     YES
 RMS     Force            0.000108     0.000300     YES
 Maximum Displacement     0.004640     0.001800     NO 
 RMS     Displacement     0.003691     0.001200     NO 
 Predicted change in Energy=-7.067229D-07
 GradGradGradGradGradGradGradGradGradGradGradGradGradGradGradGradGradGrad

                          Input orientation:                          
 ---------------------------------------------------------------------
 Center     Atomic      Atomic             Coordinates (Angstroms)
 Number     Number       Type             X           Y           Z
 ---------------------------------------------------------------------
      1         17           0       -0.143043   -0.448885    0.017716
      2          8           0        1.389649    0.316762   -0.118310
      3          8           0       -1.281631    0.552503   -0.015812
      4          1           0        1.566769    0.668729    0.767064
 ---------------------------------------------------------------------
                    Distance matrix (angstroms):
                    1          2          3          4
     1  Cl   0.000000
     2  O    1.718681   0.000000
     3  O    1.516669   2.683621   0.000000
     4  H    2.175785   0.969092   2.956314   0.000000
 Stoichiometry    ClHO2
 Framework group  C1[X(ClHO2)]
 Deg. of freedom     6
 Full point group                 C1      NOp   1
 Largest Abelian subgroup         C1      NOp   1
 Largest concise Abelian subgroup C1      NOp   1
                         Standard orientation:                         
 ---------------------------------------------------------------------
 Center     Atomic      Atomic             Coordinates (Angstroms)
 Number     Number       Type             X           Y           Z
 ---------------------------------------------------------------------
      1         17           0       -0.142941   -0.448645    0.018446
      2          8           0        1.389599    0.317084   -0.118822
      3          8           0       -1.281702    0.552512   -0.016135
      4          1           0        1.566822    0.670194    0.766076
 ---------------------------------------------------------------------
 Rotational constants (GHZ):          34.2779834           8.2670329           6.8000370
 Basis read from rwf:  (5D, 7F)
 There are   124 symmetry adapted cartesian basis functions of A   symmetry.
 There are   108 symmetry adapted basis functions of A   symmetry.
   108 basis functions,   190 primitive gaussians,   124 cartesian basis functions
    17 alpha electrons       17 beta electrons
       nuclear repulsion energy       111.8804973220 Hartrees.
 NAtoms=    4 NActive=    4 NUniq=    4 SFac= 1.00D+00 NAtFMM=   60 NAOKFM=F Big=F
 Integral buffers will be    131072 words long.
 Raffenetti 2 integral format.
 Two-electron integral symmetry is turned on.
 One-electron integrals computed using PRISM.
 NBasis=   108 RedAO= T EigKep=  4.85D-03  NBF=   108
 NBsUse=   108 1.00D-06 EigRej= -1.00D+00 NBFU=   108
 Initial guess from the checkpoint file:  "hoclo.chk"
 B after Tr=     0.000000    0.000000    0.000000
         Rot=    1.000000   -0.000713   -0.000116   -0.000021 Ang=  -0.08 deg.
 Keep R1 ints in memory in canonical form, NReq=21131371.
 Requested convergence on RMS density matrix=1.00D-08 within 128 cycles.
 Requested convergence on MAX density matrix=1.00D-06.
 Requested convergence on             energy=1.00D-06.
 No special actions if energy rises.
 SCF Done:  E(RB3LYP) =  -611.182102435     A.U. after    8 cycles
            NFock=  8  Conv=0.87D-08     -V/T= 2.0014
 Calling FoFJK, ICntrl=      2127 FMM=F ISym2X=0 I1Cent= 0 IOpClX= 0 NMat=1 NMatS=1 NMatT=0.
 ***** Axes restored to original set *****
 -------------------------------------------------------------------
 Center     Atomic                   Forces (Hartrees/Bohr)
 Number     Number              X              Y              Z
 -------------------------------------------------------------------
      1       17           0.000102253    0.000086046    0.000014848
      2        8          -0.000022399   -0.000063833   -0.000063977
      3        8          -0.000026582   -0.000013349    0.000005324
      4        1          -0.000053272   -0.000008864    0.000043804
 -------------------------------------------------------------------
 Cartesian Forces:  Max     0.000102253 RMS     0.000052040

 GradGradGradGradGradGradGradGradGradGradGradGradGradGradGradGradGradGrad
 Berny optimization.
 Using GEDIIS/GDIIS optimizer.
 FormGI is forming the generalized inverse of G from B-inverse, IUseBI=4.
 Internal  Forces:  Max     0.000113875 RMS     0.000069970
 Search for a local minimum.
 Step number   3 out of a maximum of   20
 All quantities printed in internal units (Hartrees-Bohrs-Radians)
 Mixed Optimization -- En-DIIS/RFO-DIIS
 Swapping is turned off.
 Update second derivatives using D2CorX and points    1    2    3
 DE= -6.46D-07 DEPred=-7.07D-07 R= 9.14D-01
 Trust test= 9.14D-01 RLast= 8.93D-03 DXMaxT set to 1.50D-01
 The second derivative matrix:
                          R1        R2        R3        A1        A2
           R1           0.18292
           R2          -0.02749   0.71149
           R3          -0.00790   0.00115   0.53762
           A1          -0.02828   0.00108   0.00476   0.26246
           A2           0.05764   0.00053  -0.00694  -0.01748   0.18304
           D1          -0.00201   0.00274   0.00256   0.00135  -0.00214
                          D1
           D1           0.01657
 ITU=  0 -1  0
     Eigenvalues ---    0.01650   0.12420   0.21713   0.28519   0.53811
     Eigenvalues ---    0.71297
 En-DIIS/RFO-DIIS/Sim-DIIS IScMMF=       -3 using points:     3    2    1
 RFO step:  Lambda=-1.16762624D-07.
 DidBck=F Rises=F RFO-DIIS coefs:    0.89172    0.08718    0.02110
 Iteration  1 RMS(Cart)=  0.00048544 RMS(Int)=  0.00000020
 Iteration  2 RMS(Cart)=  0.00000014 RMS(Int)=  0.00000000
 Variable       Old X    -DE/DX   Delta X   Delta X   Delta X     New X
                                 (Linear)    (Quad)   (Total)
    R1        3.24784  -0.00010   0.00013  -0.00048  -0.00035   3.24748
    R2        2.86609   0.00001   0.00001  -0.00001   0.00001   2.86610
    R3        1.83132   0.00003   0.00001   0.00003   0.00004   1.83136
    A1        1.95368   0.00008   0.00005   0.00018   0.00023   1.95390
    A2        1.82604  -0.00011  -0.00014  -0.00036  -0.00050   1.82554
    D1        1.37261  -0.00001  -0.00074  -0.00001  -0.00074   1.37187
         Item               Value     Threshold  Converged?
 Maximum Force            0.000114     0.000450     YES
 RMS     Force            0.000070     0.000300     YES
 Maximum Displacement     0.000876     0.001800     YES
 RMS     Displacement     0.000485     0.001200     YES
 Predicted change in Energy=-5.838042D-08
 Optimization completed.
    -- Stationary point found.
                           ----------------------------
                           !   Optimized Parameters   !
                           ! (Angstroms and Degrees)  !
 --------------------------                            --------------------------
 ! Name  Definition              Value          Derivative Info.                !
 --------------------------------------------------------------------------------
 ! R1    R(1,2)                  1.7187         -DE/DX =   -0.0001              !
 ! R2    R(1,3)                  1.5167         -DE/DX =    0.0                 !
 ! R3    R(2,4)                  0.9691         -DE/DX =    0.0                 !
 ! A1    A(2,1,3)              111.9374         -DE/DX =    0.0001              !
 ! A2    A(1,2,4)              104.6242         -DE/DX =   -0.0001              !
 ! D1    D(3,1,2,4)             78.6447         -DE/DX =    0.0                 !
 --------------------------------------------------------------------------------
 GradGradGradGradGradGradGradGradGradGradGradGradGradGradGradGradGradGrad

                          Input orientation:                          
 ---------------------------------------------------------------------
 Center     Atomic      Atomic             Coordinates (Angstroms)
 Number     Number       Type             X           Y           Z
 ---------------------------------------------------------------------
      1         17           0       -0.143043   -0.448885    0.017716
      2          8           0        1.389649    0.316762   -0.118310
      3          8           0       -1.281631    0.552503   -0.015812
      4          1           0        1.566769    0.668729    0.767064
 ---------------------------------------------------------------------
                    Distance matrix (angstroms):
                    1          2          3          4
     1  Cl   0.000000
     2  O    1.718681   0.000000
     3  O    1.516669   2.683621   0.000000
     4  H    2.175785   0.969092   2.956314   0.000000
 Stoichiometry    ClHO2
 Framework group  C1[X(ClHO2)]
 Deg. of freedom     6
 Full point group                 C1      NOp   1
 Largest Abelian subgroup         C1      NOp   1
 Largest concise Abelian subgroup C1      NOp   1
                         Standard orientation:                         
 ---------------------------------------------------------------------
 Center     Atomic      Atomic             Coordinates (Angstroms)
 Number     Number       Type             X           Y           Z
 ---------------------------------------------------------------------
      1         17           0       -0.142941   -0.448645    0.018446
      2          8           0        1.389599    0.317084   -0.118822
      3          8           0       -1.281702    0.552512   -0.016135
      4          1           0        1.566822    0.670194    0.766076
 ---------------------------------------------------------------------
 Rotational constants (GHZ):          34.2779834           8.2670329           6.8000370

 **********************************************************************

            Population analysis using the SCF Density.

 **********************************************************************

 Orbital symmetries:
       Occupied  (A) (A) (A) (A) (A) (A) (A) (A) (A) (A) (A) (A)
                 (A) (A) (A) (A) (A)
       Virtual   (A) (A) (A) (A) (A) (A) (A) (A) (A) (A) (A) (A)
                 (A) (A) (A) (A) (A) (A) (A) (A) (A) (A) (A) (A)
                 (A) (A) (A) (A) (A) (A) (A) (A) (A) (A) (A) (A)
                 (A) (A) (A) (A) (A) (A) (A) (A) (A) (A) (A) (A)
                 (A) (A) (A) (A) (A) (A) (A) (A) (A) (A) (A) (A)
                 (A) (A) (A) (A) (A) (A) (A) (A) (A) (A) (A) (A)
                 (A) (A) (A) (A) (A) (A) (A) (A) (A) (A) (A) (A)
                 (A) (A) (A) (A) (A) (A) (A)
 The electronic state is 1-A.
 Alpha  occ. eigenvalues -- -101.67908 -19.20946 -19.15446  -9.60770  -7.37155
 Alpha  occ. eigenvalues --   -7.36601  -7.35629  -1.13221  -1.04530  -0.78479
 Alpha  occ. eigenvalues --   -0.57127  -0.50362  -0.49048  -0.43357  -0.37435
 Alpha  occ. eigenvalues --   -0.33624  -0.26507
 Alpha virt. eigenvalues --   -0.09371  -0.01357   0.00301   0.21635   0.25327
 Alpha virt. eigenvalues --    0.26698   0.28960   0.30788   0.32011   0.33084
 Alpha virt. eigenvalues --    0.35310   0.37198   0.44152   0.45020   0.49925
 Alpha virt. eigenvalues --    0.51721   0.53271   0.54975   0.69066   0.76227
 Alpha virt. eigenvalues --    0.79610   0.89533   0.98476   1.14129   1.36986
 Alpha virt. eigenvalues --    1.39168   1.43525   1.46937   1.58199   1.65476
 Alpha virt. eigenvalues --    1.69319   1.73990   1.78328   1.88109   1.92802
 Alpha virt. eigenvalues --    2.06618   2.07644   2.09778   2.11241   2.11829
 Alpha virt. eigenvalues --    2.15573   2.18556   2.21699   2.35269   2.37039
 Alpha virt. eigenvalues --    2.46983   2.56277   2.59213   2.66683   2.79575
 Alpha virt. eigenvalues --    3.09970   3.35390   3.41106   3.47776   3.51515
 Alpha virt. eigenvalues --    3.55410   3.57935   3.66707   3.70777   3.91492
 Alpha virt. eigenvalues --    3.93956   3.99076   3.99530   4.04764   4.10413
 Alpha virt. eigenvalues --    4.17005   4.27595   4.34670   4.42876   4.44776
 Alpha virt. eigenvalues --    4.51670   4.56603   4.60931   4.66820   4.89071
 Alpha virt. eigenvalues --    4.99767   5.61877   5.98975   6.01273   6.02723
 Alpha virt. eigenvalues --    6.03650   6.13615   6.18969   6.27603   6.33621
 Alpha virt. eigenvalues --    6.35204   6.52861   6.71410   7.04801   7.13374
 Alpha virt. eigenvalues --   34.63108
          Condensed to atoms (all electrons):
               1          2          3          4
     1  Cl  16.349630   0.033762   0.075728  -0.014368
     2  O    0.033762   8.007583  -0.044994   0.311935
     3  O    0.075728  -0.044994   8.417482   0.005957
     4  H   -0.014368   0.311935   0.005957   0.489264
 Mulliken charges:
               1
     1  Cl   0.555247
     2  O   -0.308287
     3  O   -0.454173
     4  H    0.207213
 Sum of Mulliken charges =  -0.00000
 Mulliken charges with hydrogens summed into heavy atoms:
               1
     1  Cl   0.555247
     2  O   -0.101074
     3  O   -0.454173
 Electronic spatial extent (au):  <R**2>=            193.1673
 Charge=             -0.0000 electrons
 Dipole moment (field-independent basis, Debye):
    X=              1.9260    Y=             -1.3137    Z=              1.5912  Tot=              2.8227
 Quadrupole moment (field-independent basis, Debye-Ang):
   XX=            -25.8787   YY=            -22.8895   ZZ=            -22.6794
   XY=              2.8016   XZ=              2.6286   YZ=              1.2105
 Traceless Quadrupole moment (field-independent basis, Debye-Ang):
   XX=             -2.0628   YY=              0.9264   ZZ=              1.1364
   XY=              2.8016   XZ=              2.6286   YZ=              1.2105
 Octapole moment (field-independent basis, Debye-Ang**2):
  XXX=              5.4191  YYY=             -1.5626  ZZZ=              1.4281  XYY=              1.7191
  XXY=             -0.2128  XXZ=              4.5503  XZZ=              2.6759  YZZ=              0.8009
  YYZ=              1.1108  XYZ=              1.9887
 Hexadecapole moment (field-independent basis, Debye-Ang**3):
 XXXX=           -154.5729 YYYY=            -50.0627 ZZZZ=            -23.6869 XXXY=              7.4539
 XXXZ=              7.6931 YYYX=              2.2722 YYYZ=              0.9275 ZZZX=              2.5558
 ZZZY=              1.3304 XXYY=            -32.2107 XXZZ=            -27.5853 YYZZ=            -12.6764
 XXYZ=              3.1117 YYXZ=              1.7088 ZZXY=              2.1026
 N-N= 1.118804973220D+02 E-N=-1.674761398280D+03  KE= 6.103277260284D+02
 1\1\GINC-GAMBA\FOpt\RB3LYP\Gen\Cl1H1O2\IRIKURA\27-Sep-2023\0\\# b3lyp/
 gen opt freq CPHF(Grid=OneStep)\\chlorous acid, B3LYP/pcseg-2\\0,1\Cl,
 -0.1430429999,-0.4488853293,0.0177164361\O,1.3896490943,0.3167616904,-
 0.1183103577\O,-1.2816314182,0.5525028576,-0.0158118592\H,1.5667693238
 ,0.6687287813,0.7670637808\\Version=ES64L-G16RevB.01\State=1-A\HF=-611
 .1821024\RMSD=8.652e-09\RMSF=5.204e-05\Dipole=0.7575615,-0.5177686,0.6
 255237\Quadrupole=-1.5336809,0.6857904,0.8478904,2.080636,1.9566244,0.
 8998139\PG=C01 [X(Cl1H1O2)]\\@


 YOU CAN LEAD A BOY TO COLLEGE....
 BUT YOU CANNOT MAKE HIM THINK....
           ELBERT HUBBARD
 Job cpu time:       0 days  0 hours  1 minutes 18.0 seconds.
 Elapsed time:       0 days  0 hours  0 minutes 20.1 seconds.
 File lengths (MBytes):  RWF=     10 Int=      0 D2E=      0 Chk=      2 Scr=      1
 Normal termination of Gaussian 16 at Wed Sep 27 17:27:05 2023.
 Link1:  Proceeding to internal job step number  2.
 ------------------------------------------------------------------
 #N Geom=AllCheck Guess=TCheck SCRF=Check GenChk RB3LYP/ChkBas Freq
 ------------------------------------------------------------------
 1/10=4,29=7,30=1,38=1,40=1/1,3;
 2/12=2,40=1/2;
 3/5=7,6=2,11=2,14=-4,25=1,30=1,67=1,70=2,71=2,74=-5,82=7,116=1,140=1/1,2,3;
 4/5=101/1;
 5/5=2,38=6,98=1/2;
 8/6=4,10=90,11=11/1;
 11/6=1,8=1,9=11,15=111,16=1/1,2,10;
 10/6=1,60=-420/2;
 6/7=2,8=2,9=2,10=2,28=1/1;
 7/8=1,10=1,25=1/1,2,3,16;
 1/10=4,30=1/3;
 99//99;
 Structure from the checkpoint file:  "hoclo.chk"
 ----------------------------
 chlorous acid, B3LYP/pcseg-2
 ----------------------------
 Charge =  0 Multiplicity = 1
 Redundant internal coordinates found in file.  (old form).
 Cl,0,-0.1430429999,-0.4488853293,0.0177164361
 O,0,1.3896490943,0.3167616904,-0.1183103577
 O,0,-1.2816314182,0.5525028576,-0.0158118592
 H,0,1.5667693238,0.6687287813,0.7670637808
 Recover connectivity data from disk.

 GradGradGradGradGradGradGradGradGradGradGradGradGradGradGradGradGradGrad
 Berny optimization.
 Initialization pass.
                           ----------------------------
                           !    Initial Parameters    !
                           ! (Angstroms and Degrees)  !
 --------------------------                            --------------------------
 ! Name  Definition              Value          Derivative Info.                !
 --------------------------------------------------------------------------------
 ! R1    R(1,2)                  1.7187         calculate D2E/DX2 analytically  !
 ! R2    R(1,3)                  1.5167         calculate D2E/DX2 analytically  !
 ! R3    R(2,4)                  0.9691         calculate D2E/DX2 analytically  !
 ! A1    A(2,1,3)              111.9374         calculate D2E/DX2 analytically  !
 ! A2    A(1,2,4)              104.6242         calculate D2E/DX2 analytically  !
 ! D1    D(3,1,2,4)             78.6447         calculate D2E/DX2 analytically  !
 --------------------------------------------------------------------------------
 Trust Radius=3.00D-01 FncErr=1.00D-07 GrdErr=1.00D-07 EigMax=2.50D+02 EigMin=1.00D-04
 Number of steps in this run=      2 maximum allowed number of steps=      2.
 GradGradGradGradGradGradGradGradGradGradGradGradGradGradGradGradGradGrad

                          Input orientation:                          
 ---------------------------------------------------------------------
 Center     Atomic      Atomic             Coordinates (Angstroms)
 Number     Number       Type             X           Y           Z
 ---------------------------------------------------------------------
      1         17           0       -0.143043   -0.448885    0.017716
      2          8           0        1.389649    0.316762   -0.118310
      3          8           0       -1.281631    0.552503   -0.015812
      4          1           0        1.566769    0.668729    0.767064
 ---------------------------------------------------------------------
                    Distance matrix (angstroms):
                    1          2          3          4
     1  Cl   0.000000
     2  O    1.718681   0.000000
     3  O    1.516669   2.683621   0.000000
     4  H    2.175785   0.969092   2.956314   0.000000
 Stoichiometry    ClHO2
 Framework group  C1[X(ClHO2)]
 Deg. of freedom     6
 Full point group                 C1      NOp   1
 Largest Abelian subgroup         C1      NOp   1
 Largest concise Abelian subgroup C1      NOp   1
                         Standard orientation:                         
 ---------------------------------------------------------------------
 Center     Atomic      Atomic             Coordinates (Angstroms)
 Number     Number       Type             X           Y           Z
 ---------------------------------------------------------------------
      1         17           0       -0.142941   -0.448645    0.018446
      2          8           0        1.389599    0.317084   -0.118822
      3          8           0       -1.281702    0.552512   -0.016135
      4          1           0        1.566822    0.670194    0.766076
 ---------------------------------------------------------------------
 Rotational constants (GHZ):          34.2779834           8.2670329           6.8000370
 Basis read from chk: "hoclo.chk" (5D, 7F)
 There are   124 symmetry adapted cartesian basis functions of A   symmetry.
 There are   108 symmetry adapted basis functions of A   symmetry.
   108 basis functions,   190 primitive gaussians,   124 cartesian basis functions
    17 alpha electrons       17 beta electrons
       nuclear repulsion energy       111.8804973220 Hartrees.
 NAtoms=    4 NActive=    4 NUniq=    4 SFac= 1.00D+00 NAtFMM=   60 NAOKFM=F Big=F
 Integral buffers will be    131072 words long.
 Raffenetti 2 integral format.
 Two-electron integral symmetry is turned on.
 One-electron integrals computed using PRISM.
 NBasis=   108 RedAO= T EigKep=  4.85D-03  NBF=   108
 NBsUse=   108 1.00D-06 EigRej= -1.00D+00 NBFU=   108
 Initial guess from the checkpoint file:  "hoclo.chk"
 B after Tr=     0.000000   -0.000000   -0.000000
         Rot=    1.000000    0.000000    0.000000   -0.000000 Ang=   0.00 deg.
 Keep R1 ints in memory in canonical form, NReq=21131371.
 Requested convergence on RMS density matrix=1.00D-08 within 128 cycles.
 Requested convergence on MAX density matrix=1.00D-06.
 Requested convergence on             energy=1.00D-06.
 No special actions if energy rises.
 SCF Done:  E(RB3LYP) =  -611.182102435     A.U. after    1 cycles
            NFock=  1  Conv=0.34D-08     -V/T= 2.0014
 DoSCS=F DFT=T ScalE2(SS,OS)=  1.000000  1.000000
 Range of M.O.s used for correlation:     1   108
 NBasis=   108 NAE=    17 NBE=    17 NFC=     0 NFV=     0
 NROrb=    108 NOA=    17 NOB=    17 NVA=    91 NVB=    91
 Symmetrizing basis deriv contribution to polar:
 IMax=3 JMax=2 DiffMx= 0.00D+00
 G2DrvN: will do     5 centers at a time, making    1 passes.
 Calling FoFCou, ICntrl=  3107 FMM=F I1Cent=   0 AccDes= 0.00D+00.
 End of G2Drv F.D. properties file   721 does not exist.
 End of G2Drv F.D. properties file   722 does not exist.
 End of G2Drv F.D. properties file   788 does not exist.
          IDoAtm=1111
          Differentiating once with respect to electric field.
                with respect to dipole field.
          Differentiating once with respect to nuclear coordinates.
 Keep R1 ints in memory in canonical form, NReq=21126074.
          There are    15 degrees of freedom in the 1st order CPHF.  IDoFFX=6 NUNeed=     3.
     12 vectors produced by pass  0 Test12= 1.03D-14 6.67D-09 XBig12= 5.33D+01 5.89D+00.
 AX will form    12 AO Fock derivatives at one time.
     12 vectors produced by pass  1 Test12= 1.03D-14 6.67D-09 XBig12= 3.25D+01 1.98D+00.
     12 vectors produced by pass  2 Test12= 1.03D-14 6.67D-09 XBig12= 1.23D+00 3.14D-01.
     12 vectors produced by pass  3 Test12= 1.03D-14 6.67D-09 XBig12= 3.55D-02 3.75D-02.
     12 vectors produced by pass  4 Test12= 1.03D-14 6.67D-09 XBig12= 2.07D-04 2.93D-03.
     12 vectors produced by pass  5 Test12= 1.03D-14 6.67D-09 XBig12= 5.70D-07 1.36D-04.
      8 vectors produced by pass  6 Test12= 1.03D-14 6.67D-09 XBig12= 1.75D-09 6.53D-06.
      3 vectors produced by pass  7 Test12= 1.03D-14 6.67D-09 XBig12= 2.03D-12 2.15D-07.
      1 vectors produced by pass  8 Test12= 1.03D-14 6.67D-09 XBig12= 2.19D-15 7.40D-09.
 InvSVY:  IOpt=1 It=  1 EMax= 8.88D-16
 Solved reduced A of dimension    84 with    12 vectors.
 Isotropic polarizability for W=    0.000000       24.42 Bohr**3.
 End of Minotr F.D. properties file   721 does not exist.
 End of Minotr F.D. properties file   722 does not exist.
 End of Minotr F.D. properties file   788 does not exist.

 **********************************************************************

            Population analysis using the SCF Density.

 **********************************************************************

 Orbital symmetries:
       Occupied  (A) (A) (A) (A) (A) (A) (A) (A) (A) (A) (A) (A)
                 (A) (A) (A) (A) (A)
       Virtual   (A) (A) (A) (A) (A) (A) (A) (A) (A) (A) (A) (A)
                 (A) (A) (A) (A) (A) (A) (A) (A) (A) (A) (A) (A)
                 (A) (A) (A) (A) (A) (A) (A) (A) (A) (A) (A) (A)
                 (A) (A) (A) (A) (A) (A) (A) (A) (A) (A) (A) (A)
                 (A) (A) (A) (A) (A) (A) (A) (A) (A) (A) (A) (A)
                 (A) (A) (A) (A) (A) (A) (A) (A) (A) (A) (A) (A)
                 (A) (A) (A) (A) (A) (A) (A) (A) (A) (A) (A) (A)
                 (A) (A) (A) (A) (A) (A) (A)
 The electronic state is 1-A.
 Alpha  occ. eigenvalues -- -101.67908 -19.20946 -19.15446  -9.60770  -7.37155
 Alpha  occ. eigenvalues --   -7.36601  -7.35629  -1.13221  -1.04530  -0.78479
 Alpha  occ. eigenvalues --   -0.57127  -0.50362  -0.49048  -0.43357  -0.37435
 Alpha  occ. eigenvalues --   -0.33624  -0.26507
 Alpha virt. eigenvalues --   -0.09371  -0.01357   0.00301   0.21635   0.25327
 Alpha virt. eigenvalues --    0.26698   0.28960   0.30788   0.32011   0.33084
 Alpha virt. eigenvalues --    0.35310   0.37198   0.44152   0.45020   0.49925
 Alpha virt. eigenvalues --    0.51721   0.53271   0.54975   0.69066   0.76227
 Alpha virt. eigenvalues --    0.79610   0.89533   0.98476   1.14129   1.36986
 Alpha virt. eigenvalues --    1.39168   1.43525   1.46937   1.58199   1.65476
 Alpha virt. eigenvalues --    1.69319   1.73990   1.78328   1.88109   1.92802
 Alpha virt. eigenvalues --    2.06618   2.07644   2.09778   2.11241   2.11829
 Alpha virt. eigenvalues --    2.15573   2.18556   2.21699   2.35269   2.37039
 Alpha virt. eigenvalues --    2.46983   2.56277   2.59213   2.66683   2.79575
 Alpha virt. eigenvalues --    3.09970   3.35390   3.41106   3.47776   3.51515
 Alpha virt. eigenvalues --    3.55410   3.57935   3.66707   3.70777   3.91492
 Alpha virt. eigenvalues --    3.93956   3.99076   3.99530   4.04764   4.10413
 Alpha virt. eigenvalues --    4.17005   4.27595   4.34670   4.42876   4.44776
 Alpha virt. eigenvalues --    4.51670   4.56603   4.60931   4.66820   4.89071
 Alpha virt. eigenvalues --    4.99767   5.61877   5.98975   6.01273   6.02723
 Alpha virt. eigenvalues --    6.03650   6.13615   6.18969   6.27603   6.33621
 Alpha virt. eigenvalues --    6.35204   6.52861   6.71410   7.04801   7.13374
 Alpha virt. eigenvalues --   34.63108
          Condensed to atoms (all electrons):
               1          2          3          4
     1  Cl  16.349630   0.033762   0.075728  -0.014368
     2  O    0.033762   8.007583  -0.044994   0.311935
     3  O    0.075728  -0.044994   8.417482   0.005957
     4  H   -0.014368   0.311935   0.005957   0.489264
 Mulliken charges:
               1
     1  Cl   0.555248
     2  O   -0.308287
     3  O   -0.454173
     4  H    0.207213
 Sum of Mulliken charges =  -0.00000
 Mulliken charges with hydrogens summed into heavy atoms:
               1
     1  Cl   0.555248
     2  O   -0.101074
     3  O   -0.454173
 APT charges:
               1
     1  Cl   0.830945
     2  O   -0.578364
     3  O   -0.504369
     4  H    0.251789
 Sum of APT charges =  -0.00000
 APT charges with hydrogens summed into heavy atoms:
               1
     1  Cl   0.830945
     2  O   -0.326576
     3  O   -0.504369
 Electronic spatial extent (au):  <R**2>=            193.1673
 Charge=             -0.0000 electrons
 Dipole moment (field-independent basis, Debye):
    X=              1.9260    Y=             -1.3137    Z=              1.5912  Tot=              2.8227
 Quadrupole moment (field-independent basis, Debye-Ang):
   XX=            -25.8787   YY=            -22.8895   ZZ=            -22.6794
   XY=              2.8016   XZ=              2.6286   YZ=              1.2105
 Traceless Quadrupole moment (field-independent basis, Debye-Ang):
   XX=             -2.0628   YY=              0.9264   ZZ=              1.1364
   XY=              2.8016   XZ=              2.6286   YZ=              1.2105
 Octapole moment (field-independent basis, Debye-Ang**2):
  XXX=              5.4191  YYY=             -1.5626  ZZZ=              1.4281  XYY=              1.7191
  XXY=             -0.2128  XXZ=              4.5503  XZZ=              2.6759  YZZ=              0.8009
  YYZ=              1.1108  XYZ=              1.9887
 Hexadecapole moment (field-independent basis, Debye-Ang**3):
 XXXX=           -154.5729 YYYY=            -50.0627 ZZZZ=            -23.6869 XXXY=              7.4539
 XXXZ=              7.6931 YYYX=              2.2722 YYYZ=              0.9275 ZZZX=              2.5558
 ZZZY=              1.3304 XXYY=            -32.2107 XXZZ=            -27.5853 YYZZ=            -12.6764
 XXYZ=              3.1117 YYXZ=              1.7088 ZZXY=              2.1026
 N-N= 1.118804973220D+02 E-N=-1.674761391440D+03  KE= 6.103277234211D+02
  Exact polarizability:  37.287  -0.647  20.922   0.641   0.364  15.039
 Approx polarizability:  70.916  -4.709  32.871  -0.334   0.377  21.301
 Calling FoFJK, ICntrl=    100127 FMM=F ISym2X=0 I1Cent= 0 IOpClX= 0 NMat=1 NMatS=1 NMatT=0.
 Full mass-weighted force constant matrix:
 Low frequencies ---   -4.9363   -0.0036   -0.0019    0.0008    6.7908    7.6084
 Low frequencies ---  324.4335  403.9438  620.7623
 Diagonal vibrational polarizability:
       14.0847241      14.3690409       2.3593638
 Harmonic frequencies (cm**-1), IR intensities (KM/Mole), Raman scattering
 activities (A**4/AMU), depolarization ratios for plane and unpolarized
 incident light, reduced masses (AMU), force constants (mDyne/A),
 and normal coordinates:
                      1                      2                      3
                      A                      A                      A
 Frequencies --    324.4334               403.9437               620.7623
 Red. masses --      4.8768                 1.3195                17.8827
 Frc consts  --      0.3024                 0.1269                 4.0601
 IR Inten    --      2.5904               119.0372               100.4414
  Atom  AN      X      Y      Z        X      Y      Z        X      Y      Z
     1  17    -0.01  -0.16  -0.00    -0.00   0.02  -0.03    -0.33  -0.27   0.03
     2   8    -0.25   0.13   0.01     0.08  -0.08   0.03     0.70   0.45  -0.07
     3   8     0.30   0.18   0.01    -0.05  -0.01   0.05    -0.00   0.13  -0.01
     4   1    -0.60   0.63  -0.12    -0.44   0.85  -0.24     0.23   0.18   0.13
                      4                      5                      6
                      A                      A                      A
 Frequencies --    970.6751              1185.2422              3733.4211
 Red. masses --     18.2533                 1.0837                 1.0677
 Frc consts  --     10.1330                 0.8970                 8.7687
 IR Inten    --     87.4816                44.4949                79.2106
  Atom  AN      X      Y      Z        X      Y      Z        X      Y      Z
     1  17    -0.31   0.27  -0.02    -0.01  -0.02  -0.01     0.00   0.00   0.00
     2   8     0.02  -0.01   0.01    -0.04  -0.00   0.05    -0.01  -0.02  -0.06
     3   8     0.65  -0.59   0.03    -0.01   0.01  -0.00     0.00  -0.00  -0.00
     4   1     0.16   0.17  -0.09     0.87   0.39  -0.28     0.18   0.36   0.91

 -------------------
 - Thermochemistry -
 -------------------
 Temperature   298.150 Kelvin.  Pressure   1.00000 Atm.
 Atom     1 has atomic number 17 and mass  34.96885
 Atom     2 has atomic number  8 and mass  15.99491
 Atom     3 has atomic number  8 and mass  15.99491
 Atom     4 has atomic number  1 and mass   1.00783
 Molecular mass:    67.96651 amu.
 Principal axes and moments of inertia in atomic units:
                           1         2         3
     Eigenvalues --    52.65016 218.30580 265.40168
           X            0.99957   0.02058   0.02103
           Y           -0.02144   0.99890   0.04169
           Z           -0.02015  -0.04213   0.99891
 This molecule is an asymmetric top.
 Rotational symmetry number  1.
 Rotational temperatures (Kelvin)      1.64508     0.39676     0.32635
 Rotational constants (GHZ):          34.27798     8.26703     6.80004
 Zero-point vibrational energy      43295.7 (Joules/Mol)
                                   10.34792 (Kcal/Mol)
 Warning -- explicit consideration of   3 degrees of freedom as
           vibrations may cause significant error
 Vibrational temperatures:    466.79   581.18   893.14  1396.58  1705.30
          (Kelvin)           5371.56
 
 Zero-point correction=                           0.016490 (Hartree/Particle)
 Thermal correction to Energy=                    0.020227
 Thermal correction to Enthalpy=                  0.021171
 Thermal correction to Gibbs Free Energy=        -0.009240
 Sum of electronic and zero-point Energies=           -611.165612
 Sum of electronic and thermal Energies=              -611.161875
 Sum of electronic and thermal Enthalpies=            -611.160931
 Sum of electronic and thermal Free Energies=         -611.191342
 
                     E (Thermal)             CV                S
                      KCal/Mol        Cal/Mol-Kelvin    Cal/Mol-Kelvin
 Total                   12.693             10.663             64.006
 Electronic               0.000              0.000              0.000
 Translational            0.889              2.981             38.567
 Rotational               0.889              2.981             22.638
 Vibrational             10.915              4.701              2.800
 Vibration     1          0.709              1.627              1.288
 Vibration     2          0.769              1.462              0.948
 Vibration     3          0.981              0.988              0.415
                       Q            Log10(Q)             Ln(Q)
 Total Bot       0.177864D+05          4.250087          9.786187
 Total V=0       0.684176D+12         11.835168         27.251481
 Vib (Bot)       0.408470D-07         -7.388839        -17.013431
 Vib (Bot)    1  0.577874D+00         -0.238167         -0.548399
 Vib (Bot)    2  0.439963D+00         -0.356584         -0.821066
 Vib (Bot)    3  0.235393D+00         -0.628207         -1.446500
 Vib (V=0)       0.157124D+01          0.196242          0.451863
 Vib (V=0)    1  0.126416D+01          0.101802          0.234407
 Vib (V=0)    2  0.116601D+01          0.066702          0.153586
 Vib (V=0)    3  0.105264D+01          0.022279          0.051300
 Electronic      0.100000D+01          0.000000          0.000000
 Translational   0.220240D+08          7.342896         16.907644
 Rotational      0.197711D+05          4.296030          9.891974
 ***** Axes restored to original set *****
 -------------------------------------------------------------------
 Center     Atomic                   Forces (Hartrees/Bohr)
 Number     Number              X              Y              Z
 -------------------------------------------------------------------
      1       17           0.000102170    0.000086157    0.000014858
      2        8          -0.000022399   -0.000063856   -0.000063980
      3        8          -0.000026489   -0.000013436    0.000005325
      4        1          -0.000053283   -0.000008865    0.000043797
 -------------------------------------------------------------------
 Cartesian Forces:  Max     0.000102170 RMS     0.000052043
 FormGI is forming the generalized inverse of G from B-inverse, IUseBI=4.

 GradGradGradGradGradGradGradGradGradGradGradGradGradGradGradGradGradGrad
 Berny optimization.
 Internal  Forces:  Max     0.000113897 RMS     0.000069982
 Search for a local minimum.
 Step number   1 out of a maximum of    2
 All quantities printed in internal units (Hartrees-Bohrs-Radians)
 Second derivative matrix not updated -- analytic derivatives used.
 The second derivative matrix:
                          R1        R2        R3        A1        A2
           R1           0.16651
           R2           0.01169   0.39048
           R3           0.00123  -0.00244   0.49989
           A1          -0.01339   0.00268   0.00041   0.22559
           A2           0.04258   0.00583  -0.00163  -0.01408   0.16676
           D1          -0.00119   0.00347   0.00260   0.00135  -0.00170
                          D1
           D1           0.01664
 ITU=  0
     Eigenvalues ---    0.01656   0.12398   0.19561   0.23837   0.39138
     Eigenvalues ---    0.49997
 Angle between quadratic step and forces=  41.06 degrees.
 Linear search not attempted -- first point.
 Iteration  1 RMS(Cart)=  0.00051495 RMS(Int)=  0.00000022
 Iteration  2 RMS(Cart)=  0.00000016 RMS(Int)=  0.00000000
 Variable       Old X    -DE/DX   Delta X   Delta X   Delta X     New X
                                 (Linear)    (Quad)   (Total)
    R1        3.24784  -0.00010   0.00000  -0.00043  -0.00043   3.24740
    R2        2.86609   0.00001   0.00000   0.00006   0.00006   2.86615
    R3        1.83132   0.00003   0.00000   0.00005   0.00005   1.83137
    A1        1.95368   0.00008   0.00000   0.00028   0.00028   1.95396
    A2        1.82604  -0.00011   0.00000  -0.00056  -0.00056   1.82548
    D1        1.37261  -0.00001   0.00000  -0.00074  -0.00074   1.37187
         Item               Value     Threshold  Converged?
 Maximum Force            0.000114     0.000450     YES
 RMS     Force            0.000070     0.000300     YES
 Maximum Displacement     0.000923     0.001800     YES
 RMS     Displacement     0.000515     0.001200     YES
 Predicted change in Energy=-6.862513D-08
 Optimization completed.
    -- Stationary point found.
                           ----------------------------
                           !   Optimized Parameters   !
                           ! (Angstroms and Degrees)  !
 --------------------------                            --------------------------
 ! Name  Definition              Value          Derivative Info.                !
 --------------------------------------------------------------------------------
 ! R1    R(1,2)                  1.7187         -DE/DX =   -0.0001              !
 ! R2    R(1,3)                  1.5167         -DE/DX =    0.0                 !
 ! R3    R(2,4)                  0.9691         -DE/DX =    0.0                 !
 ! A1    A(2,1,3)              111.9374         -DE/DX =    0.0001              !
 ! A2    A(1,2,4)              104.6242         -DE/DX =   -0.0001              !
 ! D1    D(3,1,2,4)             78.6447         -DE/DX =    0.0                 !
 --------------------------------------------------------------------------------
 GradGradGradGradGradGradGradGradGradGradGradGradGradGradGradGradGradGrad


 ----------------------------------------------------------------------

 Electric dipole moment (input orientation):
 (Debye = 10**-18 statcoulomb cm , SI units = C m)
                  (au)            (Debye)         (10**-30 SI)
   Tot        0.111052D+01      0.282267D+01      0.941541D+01
   x          0.757561D+00      0.192553D+01      0.642287D+01
   y         -0.517768D+00     -0.131603D+01     -0.438982D+01
   z          0.625524D+00      0.158992D+01      0.530341D+01

 Dipole polarizability, Alpha (input orientation).
 (esu units = cm**3 , SI units = C**2 m**2 J**-1)
 Alpha(0;0):
               (au)            (10**-24 esu)      (10**-40 SI)
   iso        0.244158D+02      0.361805D+01      0.402563D+01
   aniso      0.200392D+02      0.296950D+01      0.330401D+01
   xx         0.372861D+02      0.552523D+01      0.614764D+01
   yx        -0.650802D+00     -0.964389D-01     -0.107303D+00
   yy         0.209212D+02      0.310021D+01      0.344944D+01
   zx         0.644424D+00      0.954937D-01      0.106251D+00
   zy         0.371668D+00      0.550756D-01      0.612799D-01
   zz         0.150402D+02      0.222873D+01      0.247979D+01

[...]
                  0.2864000              1.0000000
            F    1   1.00
                  1.1691000              1.0000000
            F    1   1.00
                  0.4006000              1.0000000
            ****
            
 Initial command:
 /usr/local/apps/g16_b01_avx/g16/l1.exe "/wrk/irikura/Gau-1825419.inp" -scrdir="/wrk/irikura/"
 Entering Link 1 = /usr/local/apps/g16_b01_avx/g16/l1.exe PID=   1825644.
  
 Copyright (c) 1988-2017, Gaussian, Inc.  All Rights Reserved.
  
 This is part of the Gaussian(R) 16 program.  It is based on
 the Gaussian(R) 09 system (copyright 2009, Gaussian, Inc.),
 the Gaussian(R) 03 system (copyright 2003, Gaussian, Inc.),
 the Gaussian(R) 98 system (copyright 1998, Gaussian, Inc.),
 the Gaussian(R) 94 system (copyright 1995, Gaussian, Inc.),
 the Gaussian 92(TM) system (copyright 1992, Gaussian, Inc.),
 the Gaussian 90(TM) system (copyright 1990, Gaussian, Inc.),
 the Gaussian 88(TM) system (copyright 1988, Gaussian, Inc.),
 the Gaussian 86(TM) system (copyright 1986, Carnegie Mellon
 University), and the Gaussian 82(TM) system (copyright 1983,
 Carnegie Mellon University). Gaussian is a federally registered
 trademark of Gaussian, Inc.
  
 This software contains proprietary and confidential information,
 including trade secrets, belonging to Gaussian, Inc.
  
 This software is provided under written license and may be
 used, copied, transmitted, or stored only in accord with that
 written license.
  
 The following legend is applicable only to US Government
 contracts under FAR:
  
                    RESTRICTED RIGHTS LEGEND
  
 Use, reproduction and disclosure by the US Government is
 subject to restrictions as set forth in subparagraphs (a)
 and (c) of the Commercial Computer Software - Restricted
 Rights clause in FAR 52.227-19.
  
 Gaussian, Inc.
 340 Quinnipiac St., Bldg. 40, Wallingford CT 06492
  
  
 ---------------------------------------------------------------
 Warning -- This program may not be used in any manner that
 competes with the business of Gaussian, Inc. or will provide
 assistance to any competitor of Gaussian, Inc.  The licensee
 of this program is prohibited from giving any competitor of
 Gaussian, Inc. access to this program.  By using this program,
 the user acknowledges that Gaussian, Inc. is engaged in the
 business of creating and licensing software in the field of
 computational chemistry and represents and warrants to the
 licensee that it is not a competitor of Gaussian, Inc. and that
 it will not use this program in any manner prohibited above.
 ---------------------------------------------------------------
  

 Cite this work as:
 Gaussian 16, Revision B.01,
 M. J. Frisch, G. W. Trucks, H. B. Schlegel, G. E. Scuseria, 
 M. A. Robb, J. R. Cheeseman, G. Scalmani, V. Barone, 
 G. A. Petersson, H. Nakatsuji, X. Li, M. Caricato, A. V. Marenich, 
 J. Bloino, B. G. Janesko, R. Gomperts, B. Mennucci, H. P. Hratchian, 
 J. V. Ortiz, A. F. Izmaylov, J. L. Sonnenberg, D. Williams-Young, 
 F. Ding, F. Lipparini, F. Egidi, J. Goings, B. Peng, A. Petrone, 
 T. Henderson, D. Ranasinghe, V. G. Zakrzewski, J. Gao, N. Rega, 
 G. Zheng, W. Liang, M. Hada, M. Ehara, K. Toyota, R. Fukuda, 
 J. Hasegawa, M. Ishida, T. Nakajima, Y. Honda, O. Kitao, H. Nakai, 
 T. Vreven, K. Throssell, J. A. Montgomery, Jr., J. E. Peralta, 
 F. Ogliaro, M. J. Bearpark, J. J. Heyd, E. N. Brothers, K. N. Kudin, 
 V. N. Staroverov, T. A. Keith, R. Kobayashi, J. Normand, 
 K. Raghavachari, A. P. Rendell, J. C. Burant, S. S. Iyengar, 
 J. Tomasi, M. Cossi, J. M. Millam, M. Klene, C. Adamo, R. Cammi, 
 J. W. Ochterski, R. L. Martin, K. Morokuma, O. Farkas, 
 J. B. Foresman, and D. J. Fox, Gaussian, Inc., Wallingford CT, 2016.
 
 ******************************************
 Gaussian 16:  ES64L-G16RevB.01 20-Dec-2017
                27-Sep-2023 
 ******************************************
 %chk=hoclo.chk
 %mem=500mw
 %nprocs=4
 Will use up to    4 processors via shared memory.
 ---------------------------------
 # rohf/gen geom=check guess=check
 ---------------------------------
 1/29=2,38=1,172=1/1;
 2/12=2,40=1/2;
 3/5=7,11=2,14=-4,25=1,30=1,116=101/1,2,3;
 4/5=1/1;
 5/5=2,38=6/2;
 6/7=2,8=2,9=2,10=2,28=1/1;
 99/5=1,9=1/99;
 -------------------------------
 chlorous acid, ROHF/cc-pVTZ-F12
 -------------------------------
 Structure from the checkpoint file:  "hoclo.chk"
 Charge =  0 Multiplicity = 1
 Redundant internal coordinates found in file.  (old form).
 Cl,0,-0.1430429999,-0.4488853293,0.0177164361
 O,0,1.3896490943,0.3167616904,-0.1183103577
 O,0,-1.2816314182,0.5525028576,-0.0158118592
 H,0,1.5667693238,0.6687287813,0.7670637808
 Recover connectivity data from disk.
                           ----------------------------
                           !    Current Parameters    !
                           ! (Angstroms and Degrees)  !
 --------------------------                            --------------------------
 ! Name  Definition              Value                                          !
 --------------------------------------------------------------------------------
 ! R1    R(1,2)                  1.7187                                         !
 ! R2    R(1,3)                  1.5167                                         !
 ! R3    R(2,4)                  0.9691                                         !
 ! A1    A(2,1,3)              111.9374                                         !
 ! A2    A(1,2,4)              104.6242                                         !
 ! D1    D(3,1,2,4)             78.6447                                         !
 --------------------------------------------------------------------------------
                          Input orientation:                          
 ---------------------------------------------------------------------
 Center     Atomic      Atomic             Coordinates (Angstroms)
 Number     Number       Type             X           Y           Z
 ---------------------------------------------------------------------
      1         17           0       -0.143043   -0.448885    0.017716
      2          8           0        1.389649    0.316762   -0.118310
      3          8           0       -1.281631    0.552503   -0.015812
      4          1           0        1.566769    0.668729    0.767064
 ---------------------------------------------------------------------
                    Distance matrix (angstroms):
                    1          2          3          4
     1  Cl   0.000000
     2  O    1.718681   0.000000
     3  O    1.516669   2.683621   0.000000
     4  H    2.175785   0.969092   2.956314   0.000000
 Stoichiometry    ClHO2
 Framework group  C1[X(ClHO2)]
 Deg. of freedom     6
 Full point group                 C1      NOp   1
 Largest Abelian subgroup         C1      NOp   1
 Largest concise Abelian subgroup C1      NOp   1
                         Standard orientation:                         
 ---------------------------------------------------------------------
 Center     Atomic      Atomic             Coordinates (Angstroms)
 Number     Number       Type             X           Y           Z
 ---------------------------------------------------------------------
      1         17           0       -0.142941   -0.448645    0.018446
      2          8           0        1.389599    0.317084   -0.118822
      3          8           0       -1.281702    0.552512   -0.016135
      4          1           0        1.566822    0.670194    0.766076
 ---------------------------------------------------------------------
 Rotational constants (GHZ):          34.2779834           8.2670329           6.8000370
 General basis read from cards:  (5D, 7F)
 There are   215 symmetry adapted cartesian basis functions of A   symmetry.
 There are   186 symmetry adapted basis functions of A   symmetry.
   186 basis functions,   306 primitive gaussians,   215 cartesian basis functions
    17 alpha electrons       17 beta electrons
       nuclear repulsion energy       111.8804973220 Hartrees.
 NAtoms=    4 NActive=    4 NUniq=    4 SFac= 1.00D+00 NAtFMM=   60 NAOKFM=F Big=F
 Integral buffers will be    131072 words long.
 Raffenetti 2 integral format.
 Two-electron integral symmetry is turned on.
 One-electron integrals computed using PRISM.
 NBasis=   186 RedAO= T EigKep=  3.39D-04  NBF=   186
 NBsUse=   186 1.00D-06 EigRej= -1.00D+00 NBFU=   186
 Initial guess from the checkpoint file:  "hoclo.chk"
 B after Tr=    -0.000000    0.000000    0.000000
         Rot=    1.000000    0.000000   -0.000000    0.000000 Ang=   0.00 deg.
 Keep R1 and R2 ints in memory in canonical form, NReq=307503889.
 Requested convergence on RMS density matrix=1.00D-08 within 128 cycles.
 Requested convergence on MAX density matrix=1.00D-06.
 Requested convergence on             energy=1.00D-06.
 No special actions if energy rises.
 SCF Done:  E(ROHF) =  -609.694376710     A.U. after   14 cycles
            NFock= 14  Conv=0.76D-08     -V/T= 2.0005
 <Sx>= 0.0000 <Sy>= 0.0000 <Sz>= 0.0000 <S**2>=-0.0000 S=-0.0000
 <L.S>=  0.00000000000    
 Annihilation of the first spin contaminant:
 S**2 before annihilation     0.0000,   after     0.0000

 **********************************************************************

            Population analysis using the SCF Density.

 **********************************************************************

 Orbital symmetries:
       Occupied  (A) (A) (A) (A) (A) (A) (A) (A) (A) (A) (A) (A)
                 (A) (A) (A) (A) (A)
       Virtual   (A) (A) (A) (A) (A) (A) (A) (A) (A) (A) (A) (A)
                 (A) (A) (A) (A) (A) (A) (A) (A) (A) (A) (A) (A)
                 (A) (A) (A) (A) (A) (A) (A) (A) (A) (A) (A) (A)
                 (A) (A) (A) (A) (A) (A) (A) (A) (A) (A) (A) (A)
                 (A) (A) (A) (A) (A) (A) (A) (A) (A) (A) (A) (A)
                 (A) (A) (A) (A) (A) (A) (A) (A) (A) (A) (A) (A)
                 (A) (A) (A) (A) (A) (A) (A) (A) (A) (A) (A) (A)
                 (A) (A) (A) (A) (A) (A) (A) (A) (A) (A) (A) (A)
                 (A) (A) (A) (A) (A) (A) (A) (A) (A) (A) (A) (A)
                 (A) (A) (A) (A) (A) (A) (A) (A) (A) (A) (A) (A)
                 (A) (A) (A) (A) (A) (A) (A) (A) (A) (A) (A) (A)
                 (A) (A) (A) (A) (A) (A) (A) (A) (A) (A) (A) (A)
                 (A) (A) (A) (A) (A) (A) (A) (A) (A) (A) (A) (A)
                 (A) (A) (A) (A) (A) (A) (A) (A) (A) (A) (A) (A)
                 (A)
 The electronic state is 1-A.
 Alpha  occ. eigenvalues -- -105.02350 -20.66199 -20.57855 -10.73176  -8.19906
 Alpha  occ. eigenvalues --   -8.19723  -8.19636  -1.46861  -1.37399  -1.03828
 Alpha  occ. eigenvalues --   -0.75576  -0.68259  -0.66166  -0.61682  -0.55596
 Alpha  occ. eigenvalues --   -0.47594  -0.42190
 Alpha virt. eigenvalues --    0.04448   0.07051   0.08070   0.08899   0.11230
 Alpha virt. eigenvalues --    0.14240   0.14704   0.16597   0.16928   0.18884
 Alpha virt. eigenvalues --    0.19869   0.22311   0.24968   0.28694   0.35219
 Alpha virt. eigenvalues --    0.40400   0.41370   0.44236   0.46979   0.48411
 Alpha virt. eigenvalues --    0.52929   0.56253   0.57072   0.58340   0.61721
 Alpha virt. eigenvalues --    0.64632   0.69889   0.72260   0.73248   0.78542
 Alpha virt. eigenvalues --    0.78985   0.82203   0.87872   0.95593   1.06423
 Alpha virt. eigenvalues --    1.08483   1.12436   1.15414   1.17864   1.22847
 Alpha virt. eigenvalues --    1.26329   1.27789   1.33117   1.40780   1.43699
 Alpha virt. eigenvalues --    1.45163   1.45681   1.46947   1.48736   1.51399
 Alpha virt. eigenvalues --    1.54400   1.56863   1.61135   1.65411   1.66389
 Alpha virt. eigenvalues --    1.69548   1.72596   1.78463   1.85372   1.87082
 Alpha virt. eigenvalues --    1.89710   1.90582   1.93763   2.00789   2.06270
 Alpha virt. eigenvalues --    2.08478   2.19968   2.23849   2.29974   2.33016
 Alpha virt. eigenvalues --    2.38425   2.41851   2.46793   2.48294   2.52521
 Alpha virt. eigenvalues --    2.57581   2.60609   2.64002   2.67739   2.72524
 Alpha virt. eigenvalues --    2.74474   2.91393   2.97324   2.99761   3.11090
 Alpha virt. eigenvalues --    3.12619   3.26760   3.38231   3.42699   3.43444
 Alpha virt. eigenvalues --    3.53341   3.59698   3.64796   3.68596   3.72007
 Alpha virt. eigenvalues --    3.81439   3.82856   3.83999   3.87918   3.89909
 Alpha virt. eigenvalues --    3.97440   4.08370   4.12439   4.17271   4.22420
 Alpha virt. eigenvalues --    4.23536   4.31181   4.42734   4.55010   4.96712
 Alpha virt. eigenvalues --    4.99897   5.09050   5.13061   5.31082   5.36943
 Alpha virt. eigenvalues --    5.54708   5.66475   5.92247   6.07646   6.50302
 Alpha virt. eigenvalues --    6.64477   6.87838   6.88543   6.93468   6.96049
 Alpha virt. eigenvalues --    6.98677   7.02206   7.03007   7.04467   7.06201
 Alpha virt. eigenvalues --    7.10959   7.23987   7.40281   7.75312   7.85785
 Alpha virt. eigenvalues --    8.81403   9.62044   9.74096   9.76316  10.17472
 Alpha virt. eigenvalues --   10.46552  10.51834  11.15292  11.17148  11.20838
 Alpha virt. eigenvalues --   11.33540  11.34143  11.42492  11.44454  11.47231
 Alpha virt. eigenvalues --   11.81715  12.05443  22.10744  22.11335  22.15589
 Alpha virt. eigenvalues --   22.27125  22.48217  23.84886  28.23613  28.50203
 Alpha virt. eigenvalues --   28.86444  37.30850  37.38298  37.39084  37.66660
 Alpha virt. eigenvalues --   37.92556  37.97907  41.73051  42.17672
          Condensed to atoms (all electrons):
               1          2          3          4
     1  Cl  16.058074   0.057091   0.124228  -0.005835
     2  O    0.057091   8.268233  -0.023829   0.219263
     3  O    0.124228  -0.023829   8.525690   0.005286
     4  H   -0.005835   0.219263   0.005286   0.395593
          Atomic-Atomic Spin Densities.
               1          2          3          4
     1  Cl   0.000000   0.000000   0.000000   0.000000
     2  O    0.000000   0.000000   0.000000   0.000000
     3  O    0.000000   0.000000   0.000000   0.000000
     4  H    0.000000   0.000000   0.000000   0.000000
 Mulliken charges and spin densities:
               1          2
     1  Cl   0.766441   0.000000
     2  O   -0.520759   0.000000
     3  O   -0.631375   0.000000
     4  H    0.385693   0.000000
 Sum of Mulliken charges =  -0.00000   0.00000
 Mulliken charges and spin densities with hydrogens summed into heavy atoms:
               1          2
     1  Cl   0.766441   0.000000
     2  O   -0.135066   0.000000
     3  O   -0.631375   0.000000
 Electronic spatial extent (au):  <R**2>=            192.7684
 Charge=             -0.0000 electrons
 Dipole moment (field-independent basis, Debye):
    X=              2.2935    Y=             -1.3799    Z=              1.6061  Tot=              3.1215
 Quadrupole moment (field-independent basis, Debye-Ang):
   XX=            -25.6802   YY=            -22.8326   ZZ=            -22.3982
   XY=              3.1042   XZ=              2.7173   YZ=              1.3037
 Traceless Quadrupole moment (field-independent basis, Debye-Ang):
   XX=             -2.0432   YY=              0.8044   ZZ=              1.2388
   XY=              3.1042   XZ=              2.7173   YZ=              1.3037
 Octapole moment (field-independent basis, Debye-Ang**2):
  XXX=              6.7980  YYY=             -1.2150  ZZZ=              1.3866  XYY=              1.9726
  XXY=              0.0017  XXZ=              4.7011  XZZ=              2.9567  YZZ=              1.1504
  YYZ=              1.1412  XYZ=              2.1114
 Hexadecapole moment (field-independent basis, Debye-Ang**3):
 XXXX=           -151.1175 YYYY=            -49.4701 ZZZZ=            -22.4009 XXXY=              7.8602
 XXXZ=              8.0663 YYYX=              2.7601 YYYZ=              1.0411 ZZZX=              2.7624
 ZZZY=              1.5660 XXYY=            -30.9232 XXZZ=            -26.3576 YYZZ=            -12.3969
 XXYZ=              3.3253 YYXZ=              1.7688 ZZXY=              2.3651
 N-N= 1.118804973220D+02 E-N=-1.673237119987D+03  KE= 6.093672939651D+02
                          Isotropic Fermi Contact Couplings
        Atom                 a.u.       MegaHertz       Gauss      10(-4) cm-1
     1  Cl(35)             0.00000       0.00000       0.00000       0.00000
     2  O(17)              0.00000      -0.00000      -0.00000      -0.00000
     3  O(17)              0.00000      -0.00000      -0.00000      -0.00000
     4  H(1)               0.00000       0.00000       0.00000       0.00000
 --------------------------------------------------------
       Center         ----  Spin Dipole Couplings  ----
                      3XX-RR        3YY-RR        3ZZ-RR
 --------------------------------------------------------
     1   Atom        0.000000      0.000000      0.000000
     2   Atom        0.000000      0.000000      0.000000
     3   Atom        0.000000      0.000000      0.000000
     4   Atom        0.000000      0.000000      0.000000
 --------------------------------------------------------
                        XY            XZ            YZ
 --------------------------------------------------------
     1   Atom        0.000000      0.000000      0.000000
     2   Atom        0.000000      0.000000      0.000000
     3   Atom        0.000000      0.000000      0.000000
     4   Atom        0.000000      0.000000      0.000000
 --------------------------------------------------------


 ---------------------------------------------------------------------------------
              Anisotropic Spin Dipole Couplings in Principal Axis System
 ---------------------------------------------------------------------------------

       Atom             a.u.   MegaHertz   Gauss  10(-4) cm-1        Axes

              Baa     0.0000     0.000     0.000     0.000  1.0000  0.0000  0.0000
     1 Cl(35) Bbb     0.0000     0.000     0.000     0.000 -0.0000  1.0000  0.0000
              Bcc     0.0000     0.000     0.000     0.000  0.0000  0.0000  1.0000
 
              Baa     0.0000    -0.000    -0.000    -0.000  1.0000  0.0000  0.0000
     2 O(17)  Bbb     0.0000    -0.000    -0.000    -0.000 -0.0000  1.0000  0.0000
              Bcc     0.0000    -0.000    -0.000    -0.000  0.0000  0.0000  1.0000
 
              Baa     0.0000    -0.000    -0.000    -0.000  1.0000  0.0000  0.0000
     3 O(17)  Bbb     0.0000    -0.000    -0.000    -0.000 -0.0000  1.0000  0.0000
              Bcc     0.0000    -0.000    -0.000    -0.000  0.0000  0.0000  1.0000
 
              Baa     0.0000     0.000     0.000     0.000  1.0000  0.0000  0.0000
     4 H(1)   Bbb     0.0000     0.000     0.000     0.000 -0.0000  1.0000  0.0000
              Bcc     0.0000     0.000     0.000     0.000  0.0000  0.0000  1.0000
 

 ---------------------------------------------------------------------------------

 1\1\GINC-GAMBA\SP\ROHF\Gen\Cl1H1O2\IRIKURA\27-Sep-2023\0\\# rohf/gen g
 eom=check guess=check\\chlorous acid, ROHF/cc-pVTZ-F12\\0,1\Cl,0,-0.14
 30429999,-0.4488853293,0.0177164361\O,0,1.3896490943,0.3167616904,-0.1
 183103577\O,0,-1.2816314182,0.5525028576,-0.0158118592\H,0,1.566769323
 8,0.6687287813,0.7670637808\\Version=ES64L-G16RevB.01\State=1-A\HF=-60
 9.6943767\RMSD=7.559e-09\Dipole=0.9021226,-0.5438518,0.6313554\Quadrup
 ole=-1.5190319,0.5948743,0.9241576,2.3055532,2.0228351,0.9689591\PG=C0
 1 [X(Cl1H1O2)]\\@


      THE ONE-EYED VIEW OF OUR UNIVERSE SAYS YOU MUST NOT LOOK
      FAR AFIELD FOR PROBLEMS.  SUCH PROBLEMS MAY NEVER ARRIVE. 
      INSTEAD, TEND TO THE WOLF WITHIN YOUR FENCES.
      THE PACKS RANGING OUTSIDE MAY NOT EVEN EXIST.

                              -- THE AZHAR BOOK SHAMRA I:4
                                 CHILDREN OF DUNE, BY FRANK HERBERT
 Job cpu time:       0 days  0 hours  0 minutes 23.6 seconds.
 Elapsed time:       0 days  0 hours  0 minutes  9.1 seconds.
 File lengths (MBytes):  RWF=     16 Int=      0 D2E=      0 Chk=      4 Scr=      1
 Normal termination of Gaussian 16 at Wed Sep 27 17:27:51 2023.
