 Entering Gaussian System, Link 0=g16
 AtFile(1): pcseg2.gbs
            -H     0
            S   4   1.00
                  0.754732D+02           0.427821D-02
                  0.113575D+02           0.328672D-01
                  0.260081D+01           0.159578D+00
                  0.735503D+00           0.500000D+00
            S   1   1.00
                  0.231761D+00           1.0000000
            S   1   1.00
                  0.741675D-01           1.0000000
            P   1   1.00
                  0.160000D+01           1.0000000
            P   1   1.00
                  0.450000D+00           1.0000000
            D   1   1.00
                  0.125000D+01           1.0000000
            ****
            -C     0
            S   7   1.00
                  0.731999D+04           0.695369D-03
                  0.109818D+04           0.537138D-02
                  0.250014D+03           0.274734D-01
                  0.707586D+02           0.105078D+00
                  0.228595D+02           0.291262D+00
                  0.803936D+01           0.500000D+00
                  0.289309D+01           0.362224D+00
            S   2   1.00
                  0.521640D+01          -0.957844D-01
                  0.556124D+00           0.500000D+00
            S   1   1.00
                  0.228813D+00           1.0000000
            S   1   1.00
                  0.936338D-01           1.0000000
            P   4   1.00
                  0.339855D+02           0.818395D-02
                  0.772957D+01           0.586921D-01
                  0.224954D+01           0.222514D+00
                  0.767681D+00           0.500000D+00
            P   1   1.00
                  0.263283D+00           1.0000000
            P   1   1.00
                  0.848744D-01           1.0000000
            D   1   1.00
                  0.140000D+01           1.0000000
            D   1   1.00
                  0.450000D+00           1.0000000
            F   1   1.00
                  0.950000D+00           1.0000000
            ****
            -O     0
            S   7   1.00
                  0.135887D+05           0.665492D-03
                  0.203847D+04           0.514222D-02
                  0.464041D+03           0.263472D-01
                  0.131339D+03           0.101500D+00
                  0.425340D+02           0.285877D+00
                  0.150429D+02           0.500000D+00
                  0.546616D+01           0.368211D+00
            S   2   1.00
                  0.100915D+02          -0.100084D+00
                  0.110429D+01           0.500000D+00
            S   1   1.00
                  0.448082D+00           1.0000000
            S   1   1.00
                  0.175325D+00           1.0000000
            P   4   1.00
                  0.608220D+02           0.908253D-02
                  0.140332D+02           0.645878D-01
                  0.418244D+01           0.241502D+00
                  0.142490D+01           0.500000D+00
            P   1   1.00
                  0.478741D+00           1.0000000
            P   1   1.00
                  0.146257D+00           1.0000000
            D   1   1.00
                  0.220000D+01           1.0000000
            D   1   1.00
                  0.650000D+00           1.0000000
            F   1   1.00
                  0.110000D+01           1.0000000
            ****
            -N     0
            S   7   1.00
                  0.101643D+05           0.682757D-03
                  0.152481D+04           0.527488D-02
                  0.347119D+03           0.270037D-01
                  0.982389D+02           0.103673D+00
                  0.317799D+02           0.289575D+00
                  0.112240D+02           0.500000D+00
                  0.406611D+01           0.364621D+00
            S   2   1.00
                  0.747898D+01          -0.975681D-01
                  0.805040D+00           0.500000D+00
            S   1   1.00
                  0.324626D+00           1.0000000
            S   1   1.00
                  0.128132D+00           1.0000000
            P   4   1.00
                  0.482704D+02           0.829547D-02
                  0.110815D+02           0.596223D-01
                  0.326643D+01           0.227889D+00
                  0.111680D+01           0.500000D+00
            P   1   1.00
                  0.382049D+00           1.0000000
            P   1   1.00
                  0.121222D+00           1.0000000
            D   1   1.00
                  0.180000D+01           1.0000000
            D   1   1.00
                  0.550000D+00           1.0000000
            F   1   1.00
                  0.102000D+01           1.0000000
            ****
            -F     0
            S   7   1.00
                  0.174507D+05           0.655972D-03
                  0.261768D+04           0.506944D-02
                  0.595857D+03           0.259899D-01
                  0.168651D+03           0.100353D+00
                  0.546654D+02           0.284095D+00
                  0.193717D+02           0.500000D+00
                  0.706202D+01           0.370721D+00
            S   2   1.00
                  0.131197D+02          -0.101997D+00
                  0.145046D+01           0.500000D+00
            S   1   1.00
                  0.588255D+00           1.0000000
            S   1   1.00
                  0.227960D+00           1.0000000
            P   4   1.00
                  0.779407D+02           0.931135D-02
                  0.180425D+02           0.663964D-01
                  0.542342D+01           0.246386D+00
                  0.184876D+01           0.500000D+00
            P   1   1.00
                  0.617455D+00           1.0000000
            P   1   1.00
                  0.185496D+00           1.0000000
            D   1   1.00
                  0.280000D+01           1.0000000
            D   1   1.00
                  0.800000D+00           1.0000000
            F   1   1.00
                  0.120000D+01           1.0000000
            ****
            -Cl     0
            S   8   1.00
                  0.154272D+06           0.222473D-03
                  0.231232D+05           0.172590D-02
                  0.526257D+04           0.899286D-02
                  0.148995D+04           0.367724D-01
                  0.485417D+03           0.121446D+00
                  0.174634D+03           0.304148D+00
                  0.672393D+02           0.500000D+00
                  0.265780D+02           0.360252D+00
            S   3   1.00
                  0.131826D+03          -0.531330D-01
                  0.400703D+02          -0.233346D+00
                  0.789448D+01           0.500000D+00
            S   2   1.00
                  0.427711D+01           0.500000D+00
                  0.196233D+01           0.370517D+00
            S   1   1.00
                  0.520793D+00           1.0000000
            S   1   1.00
                  0.181633D+00           1.0000000
            P   7   1.00
                  0.124440D+04           0.988206D-03
                  0.295109D+03           0.829674D-02
                  0.947224D+02           0.430906D-01
                  0.352588D+02           0.148443D+00
                  0.144211D+02           0.344744D+00
                  0.610371D+01           0.500000D+00
                  0.258886D+01           0.348278D+00
            P   2   1.00
                  0.109447D+02          -0.196768D-01
                  0.104413D+01           0.500000D+00
            P   1   1.00
                  0.376184D+00           1.0000000
            P   1   1.00
                  0.120613D+00           1.0000000
            D   1   1.00
                  0.231000D+01           1.0000000
            D   1   1.00
                  0.520000D+00           1.0000000
            F   1   1.00
                  0.720000D+00           1.0000000
            ****
            -S     0
            S   8   1.00
                  0.134700D+06           0.226231D-03
                  0.201904D+05           0.175488D-02
                  0.459528D+04           0.914190D-02
                  0.130109D+04           0.373551D-01
                  0.423902D+03           0.123121D+00
                  0.152485D+03           0.306801D+00
                  0.586925D+02           0.500000D+00
                  0.231461D+02           0.354358D+00
            S   3   1.00
                  0.116327D+03          -0.491772D-01
                  0.352841D+02          -0.215962D+00
                  0.677831D+01           0.500000D+00
            S   2   1.00
                  0.360404D+01           0.500000D+00
                  0.164871D+01           0.366278D+00
            S   1   1.00
                  0.421821D+00           1.0000000
            S   1   1.00
                  0.147554D+00           1.0000000
            P   7   1.00
                  0.104863D+04           0.105273D-02
                  0.248717D+03           0.879338D-02
                  0.797887D+02           0.453358D-01
                  0.296023D+02           0.154476D+00
                  0.120627D+02           0.352366D+00
                  0.507628D+01           0.500000D+00
                  0.213375D+01           0.346429D+00
            P   2   1.00
                  0.928958D+01          -0.185932D-01
                  0.837819D+00           0.500000D+00
            P   1   1.00
                  0.301495D+00           1.0000000
            P   1   1.00
                  0.974740D-01           1.0000000
            D   1   1.00
                  0.210000D+01           1.0000000
            D   1   1.00
                  0.480000D+00           1.0000000
            F   1   1.00
                  0.660000D+00           1.0000000
            ****
            -Br     0
            S    10   1.00
                  0.233625D+07           0.532336D-04
                  0.349961D+06           0.413715D-03
                  0.796444D+05           0.217123D-02
                  0.225555D+05           0.910109D-02
                  0.735546D+04           0.323789D-01
                  0.265352D+04           0.988755D-01
                  0.103517D+04           0.248138D+00
                  0.422205D+03           0.474328D+00
                  0.180035D+03           0.500000D+00
                  0.793308D+02           0.187769D+00
            S    4   1.00
                  0.620834D+03          -0.226511D-01
                  0.190829D+03          -0.109497D+00
                  0.312505D+02           0.500000D+00
                  0.135270D+02           0.492812D+00
            S    2   1.00
                  0.216097D+02          -0.165418D+00
                  0.372566D+01           0.500000D+00
            S    1   1.00
                  0.169770D+01           1.0000000
            S    1   1.00
                  0.489332D+00           1.0000000
            S    1   1.00
                  0.175712D+00           1.0000000
            P    8   1.00
                  0.960829D+04           0.478974D-03
                  0.227618D+04           0.417853D-02
                  0.736723D+03           0.229315D-01
                  0.281579D+03           0.892653D-01
                  0.118395D+03           0.255288D+00
                  0.527481D+02           0.479074D+00
                  0.245098D+02           0.500000D+00
                  0.112009D+02           0.200944D+00
            P    4   1.00
                  0.587849D+02          -0.189674D-01
                  0.918962D+01           0.264104D+00
                  0.413895D+01           0.500000D+00
                  0.184225D+01           0.319316D+00
            P    1   1.00
                  0.713862D+00           1.0000000
            P    1   1.00
                  0.274232D+00           1.0000000
            P    1   1.00
                  0.944411D-01           1.0000000
            D    7   1.00
                  0.398470D+03           0.204066D-02
                  0.118967D+03           0.175171D-01
                  0.450197D+02           0.829708D-01
                  0.190320D+02           0.236284D+00
                  0.855686D+01           0.428468D+00
                  0.382950D+01           0.500000D+00
                  0.166291D+01           0.349360D+00
            D    1   1.00
                  0.672953D+00           1.0000000
            D    1   1.00
                  0.252000D+00           1.0000000
            F    1   1.00
                  0.530000D+00           1.0000000
            ****
            -Si     0
            S    8   1.00
                  0.996133D+05           0.235546D-03
                  0.149311D+05           0.182707D-02
                  0.339820D+04           0.951425D-02
                  0.962140D+03           0.388172D-01
                  0.313430D+03           0.127328D+00
                  0.112683D+03           0.313522D+00
                  0.433372D+02           0.500000D+00
                  0.170029D+02           0.340347D+00
            S    3   1.00
                  0.884208D+02          -0.404451D-01
                  0.266756D+02          -0.178059D+00
                  0.479640D+01           0.500000D+00
            S    2   1.00
                  0.239385D+01           0.500000D+00
                  0.108333D+01           0.338016D+00
            S    1   1.00
                  0.252420D+00           1.0000000
            S    1   1.00
                  0.891210D-01           1.0000000
            P    7   1.00
                  0.709901D+03           0.123028D-02
                  0.168426D+03           0.101366D-01
                  0.539946D+02           0.511840D-01
                  0.198646D+02           0.169967D+00
                  0.801369D+01           0.370717D+00
                  0.331870D+01           0.500000D+00
                  0.136112D+01           0.344128D+00
            P    2   1.00
                  0.622158D+01          -0.166609D-01
                  0.503049D+00           0.500000D+00
            P    1   1.00
                  0.179848D+00           1.0000000
            P    1   1.00
                  0.591912D-01           1.0000000
            D    1   1.00
                  0.168000D+01           1.0000000
            D    1   1.00
                  0.380000D+00           1.0000000
            F    1   1.00
                  0.540000D+00           1.0000000
            ****
            -P     0
            S    8   1.00
                  0.116416D+06           0.230715D-03
                  0.174500D+05           0.178960D-02
                  0.397149D+04           0.932116D-02
                  0.112447D+04           0.380591D-01
                  0.366347D+03           0.125148D+00
                  0.131757D+03           0.310022D+00
                  0.506988D+02           0.500000D+00
                  0.199436D+02           0.347528D+00
            S    3   1.00
                  0.101878D+03          -0.446755D-01
                  0.308249D+02          -0.196376D+00
                  0.573688D+01           0.500000D+00
            S    2   1.00
                  0.296868D+01           0.500000D+00
                  0.135315D+01           0.355098D+00
            S    1   1.00
                  0.332196D+00           1.0000000
            S    1   1.00
                  0.116229D+00           1.0000000
            P    7   1.00
                  0.873928D+03           0.112375D-02
                  0.207298D+03           0.933330D-02
                  0.664628D+02           0.477213D-01
                  0.245665D+02           0.160733D+00
                  0.996820D+01           0.359760D+00
                  0.416536D+01           0.500000D+00
                  0.173022D+01           0.346593D+00
            P    2   1.00
                  0.772530D+01          -0.175718D-01
                  0.657252D+00           0.500000D+00
            P    1   1.00
                  0.239903D+00           1.0000000
            P    1   1.00
                  0.800988D-01           1.0000000
            D    1   1.00
                  0.189000D+01           1.0000000
            D    1   1.00
                  0.430000D+00           1.0000000
            F    1   1.00
                  0.600000D+00           1.0000000
            ****
            
 Initial command:
 /usr/local/apps/g16_b01_avx/g16/l1.exe "/wrk/irikura/Gau-488566.inp" -scrdir="/wrk/irikura/"
 Entering Link 1 = /usr/local/apps/g16_b01_avx/g16/l1.exe PID=    488568.
  
 Copyright (c) 1988-2017, Gaussian, Inc.  All Rights Reserved.
  
 This is part of the Gaussian(R) 16 program.  It is based on
 the Gaussian(R) 09 system (copyright 2009, Gaussian, Inc.),
 the Gaussian(R) 03 system (copyright 2003, Gaussian, Inc.),
 the Gaussian(R) 98 system (copyright 1998, Gaussian, Inc.),
 the Gaussian(R) 94 system (copyright 1995, Gaussian, Inc.),
 the Gaussian 92(TM) system (copyright 1992, Gaussian, Inc.),
 the Gaussian 90(TM) system (copyright 1990, Gaussian, Inc.),
 the Gaussian 88(TM) system (copyright 1988, Gaussian, Inc.),
 the Gaussian 86(TM) system (copyright 1986, Carnegie Mellon
 University), and the Gaussian 82(TM) system (copyright 1983,
 Carnegie Mellon University). Gaussian is a federally registered
 trademark of Gaussian, Inc.
  
 This software contains proprietary and confidential information,
 including trade secrets, belonging to Gaussian, Inc.
  
 This software is provided under written license and may be
 used, copied, transmitted, or stored only in accord with that
 written license.
  
 The following legend is applicable only to US Government
 contracts under FAR:
  
                    RESTRICTED RIGHTS LEGEND
  
 Use, reproduction and disclosure by the US Government is
 subject to restrictions as set forth in subparagraphs (a)
 and (c) of the Commercial Computer Software - Restricted
 Rights clause in FAR 52.227-19.
  
 Gaussian, Inc.
 340 Quinnipiac St., Bldg. 40, Wallingford CT 06492
  
  
 ---------------------------------------------------------------
 Warning -- This program may not be used in any manner that
 competes with the business of Gaussian, Inc. or will provide
 assistance to any competitor of Gaussian, Inc.  The licensee
 of this program is prohibited from giving any competitor of
 Gaussian, Inc. access to this program.  By using this program,
 the user acknowledges that Gaussian, Inc. is engaged in the
 business of creating and licensing software in the field of
 computational chemistry and represents and warrants to the
 licensee that it is not a competitor of Gaussian, Inc. and that
 it will not use this program in any manner prohibited above.
 ---------------------------------------------------------------
  

 Cite this work as:
 Gaussian 16, Revision B.01,
 M. J. Frisch, G. W. Trucks, H. B. Schlegel, G. E. Scuseria, 
 M. A. Robb, J. R. Cheeseman, G. Scalmani, V. Barone, 
 G. A. Petersson, H. Nakatsuji, X. Li, M. Caricato, A. V. Marenich, 
 J. Bloino, B. G. Janesko, R. Gomperts, B. Mennucci, H. P. Hratchian, 
 J. V. Ortiz, A. F. Izmaylov, J. L. Sonnenberg, D. Williams-Young, 
 F. Ding, F. Lipparini, F. Egidi, J. Goings, B. Peng, A. Petrone, 
 T. Henderson, D. Ranasinghe, V. G. Zakrzewski, J. Gao, N. Rega, 
 G. Zheng, W. Liang, M. Hada, M. Ehara, K. Toyota, R. Fukuda, 
 J. Hasegawa, M. Ishida, T. Nakajima, Y. Honda, O. Kitao, H. Nakai, 
 T. Vreven, K. Throssell, J. A. Montgomery, Jr., J. E. Peralta, 
 F. Ogliaro, M. J. Bearpark, J. J. Heyd, E. N. Brothers, K. N. Kudin, 
 V. N. Staroverov, T. A. Keith, R. Kobayashi, J. Normand, 
 K. Raghavachari, A. P. Rendell, J. C. Burant, S. S. Iyengar, 
 J. Tomasi, M. Cossi, J. M. Millam, M. Klene, C. Adamo, R. Cammi, 
 J. W. Ochterski, R. L. Martin, K. Morokuma, O. Farkas, 
 J. B. Foresman, and D. J. Fox, Gaussian, Inc., Wallingford CT, 2016.
 
 ******************************************
 Gaussian 16:  ES64L-G16RevB.01 20-Dec-2017
                30-Sep-2023 
 ******************************************
 %chk=hoclo2.chk
 %mem=500mw
 %nprocs=4
 Will use up to    4 processors via shared memory.
 ---------------------------------------
 # b3lyp/gen opt freq CPHF(Grid=OneStep)
 ---------------------------------------
 1/18=20,19=15,26=3,38=1/1,3;
 2/9=110,12=2,17=6,18=5,40=1/2;
 3/5=7,11=2,25=1,30=1,71=1,74=-5/1,2,3;
 4//1;
 5/5=2,38=5/2;
 6/7=2,8=2,9=2,10=2,28=1/1;
 7//1,2,3,16;
 1/18=20,19=15,26=3/3(2);
 2/9=110/2;
 99//99;
 2/9=110/2;
 3/5=7,6=1,11=2,25=1,30=1,71=1,74=-5,82=7/1,2,3;
 4/5=5,16=3,69=1/1;
 5/5=2,38=5/2;
 7//1,2,3,16;
 1/18=20,19=15,26=3/3(-5);
 2/9=110/2;
 6/7=2,8=2,9=2,10=2,19=2,28=1/1;
 99/9=1/99;
 -------------------------------------
 chloric acid (HO-ClO2), B3LYP/pcseg-2
 -------------------------------------
 Symbolic Z-matrix:
 Charge =  0 Multiplicity = 1
 Cl                   -0.16813   0.00897  -0.34231 
 O                     1.475    -0.31874   0.05505 
 O                    -0.39141   1.32184   0.24975 
 O                    -0.92638  -1.03949   0.30953 
 H                     1.60051   0.13874   0.90469 
 

 GradGradGradGradGradGradGradGradGradGradGradGradGradGradGradGradGradGrad
 Berny optimization.
 Initialization pass.
                           ----------------------------
                           !    Initial Parameters    !
                           ! (Angstroms and Degrees)  !
 --------------------------                            --------------------------
 ! Name  Definition              Value          Derivative Info.                !
 --------------------------------------------------------------------------------
 ! R1    R(1,2)                  1.722          estimate D2E/DX2                !
 ! R2    R(1,3)                  1.4574         estimate D2E/DX2                !
 ! R3    R(1,4)                  1.4488         estimate D2E/DX2                !
 ! R4    R(2,5)                  0.9731         estimate D2E/DX2                !
 ! A1    A(2,1,3)              102.9373         estimate D2E/DX2                !
 ! A2    A(2,1,4)              104.943          estimate D2E/DX2                !
 ! A3    A(3,1,4)              112.8884         estimate D2E/DX2                !
 ! A4    A(1,2,5)              103.5969         estimate D2E/DX2                !
 ! D1    D(3,1,2,5)             31.1075         estimate D2E/DX2                !
 ! D2    D(4,1,2,5)            -87.209          estimate D2E/DX2                !
 ! D3    D(2,1,3,4)           -112.592          estimate D2E/DX2                !
 --------------------------------------------------------------------------------
 Trust Radius=3.00D-01 FncErr=1.00D-07 GrdErr=1.00D-06 EigMax=2.50D+02 EigMin=1.00D-04
 Number of steps in this run=     21 maximum allowed number of steps=    100.
 GradGradGradGradGradGradGradGradGradGradGradGradGradGradGradGradGradGrad

                          Input orientation:                          
 ---------------------------------------------------------------------
 Center     Atomic      Atomic             Coordinates (Angstroms)
 Number     Number       Type             X           Y           Z
 ---------------------------------------------------------------------
      1         17           0       -0.168126    0.008965   -0.342312
      2          8           0        1.475001   -0.318738    0.055052
      3          8           0       -0.391414    1.321836    0.249750
      4          8           0       -0.926382   -1.039493    0.309526
      5          1           0        1.600511    0.138744    0.904688
 ---------------------------------------------------------------------
                    Distance matrix (angstroms):
                    1          2          3          4          5
     1  Cl   0.000000
     2  O    1.721962   0.000000
     3  O    1.457404   2.492568   0.000000
     4  O    1.448830   2.520096   2.421908   0.000000
     5  H    2.167932   0.973100   2.407575   2.850903   0.000000
 Stoichiometry    ClHO3
 Framework group  C1[X(ClHO3)]
 Deg. of freedom     9
 Full point group                 C1      NOp   1
 Largest Abelian subgroup         C1      NOp   1
 Largest concise Abelian subgroup C1      NOp   1
                         Standard orientation:                         
 ---------------------------------------------------------------------
 Center     Atomic      Atomic             Coordinates (Angstroms)
 Number     Number       Type             X           Y           Z
 ---------------------------------------------------------------------
      1         17           0       -0.168126    0.008965   -0.342312
      2          8           0        1.475002   -0.318734    0.055052
      3          8           0       -0.391418    1.321835    0.249750
      4          8           0       -0.926380   -1.039495    0.309526
      5          1           0        1.600510    0.138748    0.904688
 ---------------------------------------------------------------------
 Rotational constants (GHZ):           9.3051073           8.1514841           4.9825691
 General basis read from cards:  (5D, 7F)
 There are   159 symmetry adapted cartesian basis functions of A   symmetry.
 There are   138 symmetry adapted basis functions of A   symmetry.
   138 basis functions,   241 primitive gaussians,   159 cartesian basis functions
    21 alpha electrons       21 beta electrons
       nuclear repulsion energy       193.6018436132 Hartrees.
 NAtoms=    5 NActive=    5 NUniq=    5 SFac= 1.00D+00 NAtFMM=   60 NAOKFM=F Big=F
 Integral buffers will be    131072 words long.
 Raffenetti 2 integral format.
 Two-electron integral symmetry is turned on.
 One-electron integrals computed using PRISM.
 NBasis=   138 RedAO= T EigKep=  3.13D-03  NBF=   138
 NBsUse=   138 1.00D-06 EigRej= -1.00D+00 NBFU=   138
 ExpMin= 7.42D-02 ExpMax= 1.54D+05 ExpMxC= 1.49D+03 IAcc=3 IRadAn=         5 AccDes= 0.00D+00
 Harris functional with IExCor=  402 and IRadAn=       5 diagonalized for initial guess.
 HarFok:  IExCor=  402 AccDes= 0.00D+00 IRadAn=         5 IDoV= 1 UseB2=F ITyADJ=14
 ICtDFT=  3500011 ScaDFX=  1.000000  1.000000  1.000000  1.000000
 FoFCou: FMM=F IPFlag=           0 FMFlag=      100000 FMFlg1=           0
         NFxFlg=           0 DoJE=T BraDBF=F KetDBF=T FulRan=T
         wScrn=  0.000000 ICntrl=       500 IOpCl=  0 I1Cent=   200000004 NGrid=           0
         NMat0=    1 NMatS0=      1 NMatT0=    0 NMatD0=    1 NMtDS0=    0 NMtDT0=    0
 Petite list used in FoFCou.
 Keep R1 ints in memory in canonical form, NReq=49937975.
 Requested convergence on RMS density matrix=1.00D-08 within 128 cycles.
 Requested convergence on MAX density matrix=1.00D-06.
 Requested convergence on             energy=1.00D-06.
 No special actions if energy rises.
 Integral accuracy reduced to 1.0D-05 until final iterations.
 EnCoef did     1 forward-backward iterations
 Initial convergence to 1.0D-05 achieved.  Increase integral accuracy.
 SCF Done:  E(RB3LYP) =  -686.373067493     A.U. after   15 cycles
            NFock= 15  Conv=0.50D-08     -V/T= 2.0016

 **********************************************************************

            Population analysis using the SCF Density.

 **********************************************************************

 Orbital symmetries:
       Occupied  (A) (A) (A) (A) (A) (A) (A) (A) (A) (A) (A) (A)
                 (A) (A) (A) (A) (A) (A) (A) (A) (A)
       Virtual   (A) (A) (A) (A) (A) (A) (A) (A) (A) (A) (A) (A)
                 (A) (A) (A) (A) (A) (A) (A) (A) (A) (A) (A) (A)
                 (A) (A) (A) (A) (A) (A) (A) (A) (A) (A) (A) (A)
                 (A) (A) (A) (A) (A) (A) (A) (A) (A) (A) (A) (A)
                 (A) (A) (A) (A) (A) (A) (A) (A) (A) (A) (A) (A)
                 (A) (A) (A) (A) (A) (A) (A) (A) (A) (A) (A) (A)
                 (A) (A) (A) (A) (A) (A) (A) (A) (A) (A) (A) (A)
                 (A) (A) (A) (A) (A) (A) (A) (A) (A) (A) (A) (A)
                 (A) (A) (A) (A) (A) (A) (A) (A) (A) (A) (A) (A)
                 (A) (A) (A) (A) (A) (A) (A) (A) (A)
 The electronic state is 1-A.
 Alpha  occ. eigenvalues -- -101.81339 -19.20479 -19.19155 -19.19035  -9.72145
 Alpha  occ. eigenvalues --   -7.48344  -7.48210  -7.47492  -1.25678  -1.08685
 Alpha  occ. eigenvalues --   -1.06507  -0.76867  -0.60888  -0.57625  -0.55034
 Alpha  occ. eigenvalues --   -0.49231  -0.41521  -0.39481  -0.37560  -0.35031
 Alpha  occ. eigenvalues --   -0.33636
 Alpha virt. eigenvalues --   -0.09086   0.00046   0.00432   0.01355   0.18751
 Alpha virt. eigenvalues --    0.23420   0.25651   0.26416   0.29760   0.31167
 Alpha virt. eigenvalues --    0.32090   0.32724   0.33722   0.37078   0.41061
 Alpha virt. eigenvalues --    0.42017   0.44062   0.45543   0.47764   0.48200
 Alpha virt. eigenvalues --    0.52101   0.60517   0.68096   0.73645   0.79770
 Alpha virt. eigenvalues --    0.85375   0.93649   1.04434   1.13039   1.31978
 Alpha virt. eigenvalues --    1.35586   1.38003   1.42368   1.46085   1.52550
 Alpha virt. eigenvalues --    1.55134   1.56115   1.66795   1.71578   1.73676
 Alpha virt. eigenvalues --    1.77745   1.79509   1.87463   1.89060   1.93568
 Alpha virt. eigenvalues --    2.05974   2.08587   2.10104   2.14110   2.18191
 Alpha virt. eigenvalues --    2.19629   2.22968   2.30998   2.34921   2.40920
 Alpha virt. eigenvalues --    2.44542   2.54199   2.57297   2.59878   2.69832
 Alpha virt. eigenvalues --    2.71704   2.73733   2.86451   3.17319   3.37177
 Alpha virt. eigenvalues --    3.43703   3.51100   3.52829   3.58844   3.64282
 Alpha virt. eigenvalues --    3.68525   3.71435   3.86298   3.91583   3.92646
 Alpha virt. eigenvalues --    3.93842   3.94244   3.94791   3.95671   4.01823
 Alpha virt. eigenvalues --    4.04306   4.10033   4.18852   4.26372   4.34031
 Alpha virt. eigenvalues --    4.43848   4.49190   4.49802   4.54472   4.57206
 Alpha virt. eigenvalues --    4.60721   4.74444   4.82101   4.83615   4.90900
 Alpha virt. eigenvalues --    4.93021   5.65717   5.96126   5.97302   5.98336
 Alpha virt. eigenvalues --    6.00650   6.04299   6.06170   6.13752   6.19032
 Alpha virt. eigenvalues --    6.26682   6.29159   6.35218   6.37444   6.43054
 Alpha virt. eigenvalues --    6.45395   6.58445   6.65461   7.02321   7.17455
 Alpha virt. eigenvalues --    7.81245  38.06148
          Condensed to atoms (all electrons):
               1          2          3          4          5
     1  Cl  15.456366   0.084808   0.268396   0.276143  -0.006853
     2  O    0.084808   8.062912  -0.066161  -0.054912   0.310206
     3  O    0.268396  -0.066161   8.264389  -0.067666   0.013122
     4  O    0.276143  -0.054912  -0.067666   8.221729   0.003809
     5  H   -0.006853   0.310206   0.013122   0.003809   0.472820
 Mulliken charges:
               1
     1  Cl   0.921139
     2  O   -0.336853
     3  O   -0.412080
     4  O   -0.379102
     5  H    0.206896
 Sum of Mulliken charges =  -0.00000
 Mulliken charges with hydrogens summed into heavy atoms:
               1
     1  Cl   0.921139
     2  O   -0.129957
     3  O   -0.412080
     4  O   -0.379102
 Electronic spatial extent (au):  <R**2>=            266.9614
 Charge=             -0.0000 electrons
 Dipole moment (field-independent basis, Debye):
    X=              1.0880    Y=              0.3615    Z=             -0.4649  Tot=              1.2371
 Quadrupole moment (field-independent basis, Debye-Ang):
   XX=            -29.7701   YY=            -33.3573   ZZ=            -26.5129
   XY=              0.7108   XZ=              3.5940   YZ=              0.4128
 Traceless Quadrupole moment (field-independent basis, Debye-Ang):
   XX=              0.1100   YY=             -3.4772   ZZ=              3.3672
   XY=              0.7108   XZ=              3.5940   YZ=              0.4128
 Octapole moment (field-independent basis, Debye-Ang**2):
  XXX=              0.7603  YYY=             -1.8139  ZZZ=              0.5231  XYY=              2.0027
  XXY=              3.4459  XXZ=              3.6050  XZZ=              2.8458  YZZ=              0.2840
  YYZ=             -1.5222  XYZ=              0.6363
 Hexadecapole moment (field-independent basis, Debye-Ang**3):
 XXXX=           -142.6856 YYYY=           -131.2930 ZZZZ=            -39.4694 XXXY=              2.6957
 XXXZ=             10.2661 YYYX=              0.7181 YYYZ=              0.3670 ZZZX=              4.2565
 ZZZY=              0.4170 XXYY=            -47.4658 XXZZ=            -26.2377 YYZZ=            -27.7492
 XXYZ=              1.1182 YYXZ=              0.3892 ZZXY=              0.5115
 N-N= 1.936018436132D+02 E-N=-2.014197962859D+03  KE= 6.852634470603D+02
 Calling FoFJK, ICntrl=      2127 FMM=F ISym2X=0 I1Cent= 0 IOpClX= 0 NMat=1 NMatS=1 NMatT=0.
 ***** Axes restored to original set *****
 -------------------------------------------------------------------
 Center     Atomic                   Forces (Hartrees/Bohr)
 Number     Number              X              Y              Z
 -------------------------------------------------------------------
      1       17           0.000035385    0.000016630   -0.000108886
      2        8           0.000068400    0.000001765    0.000057290
      3        8          -0.000037184    0.000106495    0.000037453
      4        8          -0.000073146   -0.000098374    0.000056486
      5        1           0.000006545   -0.000026516   -0.000042343
 -------------------------------------------------------------------
 Cartesian Forces:  Max     0.000108886 RMS     0.000061228

 GradGradGradGradGradGradGradGradGradGradGradGradGradGradGradGradGradGrad
 Berny optimization.
 FormGI is forming the generalized inverse of G from B-inverse, IUseBI=4.
 Internal  Forces:  Max     0.000134978 RMS     0.000063464
 Search for a local minimum.
 Step number   1 out of a maximum of   21
 All quantities printed in internal units (Hartrees-Bohrs-Radians)
 Mixed Optimization -- En-DIIS/RFO-DIIS
 Second derivative matrix not updated -- first step.
 The second derivative matrix:
                          R1        R2        R3        R4        A1
           R1           0.33372
           R2           0.00000   0.92708
           R3           0.00000   0.00000   0.96464
           R4           0.00000   0.00000   0.00000   0.52749
           A1           0.00000   0.00000   0.00000   0.00000   0.25000
           A2           0.00000   0.00000   0.00000   0.00000   0.00000
           A3           0.00000   0.00000   0.00000   0.00000   0.00000
           A4           0.00000   0.00000   0.00000   0.00000   0.00000
           D1           0.00000   0.00000   0.00000   0.00000   0.00000
           D2           0.00000   0.00000   0.00000   0.00000   0.00000
           D3           0.00000   0.00000   0.00000   0.00000   0.00000
                          A2        A3        A4        D1        D2
           A2           0.25000
           A3           0.00000   0.25000
           A4           0.00000   0.00000   0.16000
           D1           0.00000   0.00000   0.00000   0.00344
           D2           0.00000   0.00000   0.00000   0.00000   0.00344
           D3           0.00000   0.00000   0.00000   0.00000   0.00000
                          D3
           D3           0.03844
 ITU=  0
     Eigenvalues ---    0.00344   0.09638   0.16000   0.19113   0.25000
     Eigenvalues ---    0.33372   0.52749   0.92708   0.96464
 RFO step:  Lambda=-7.64529045D-08 EMin= 3.43991133D-03
 Linear search not attempted -- first point.
 Iteration  1 RMS(Cart)=  0.00026667 RMS(Int)=  0.00000002
 Iteration  2 RMS(Cart)=  0.00000002 RMS(Int)=  0.00000001
 Variable       Old X    -DE/DX   Delta X   Delta X   Delta X     New X
                                 (Linear)    (Quad)   (Total)
    R1        3.25404   0.00008   0.00000   0.00024   0.00024   3.25428
    R2        2.75409   0.00012   0.00000   0.00013   0.00013   2.75422
    R3        2.73789   0.00013   0.00000   0.00014   0.00014   2.73803
    R4        1.83889  -0.00005   0.00000  -0.00009  -0.00009   1.83880
    A1        1.79659   0.00005   0.00000   0.00023   0.00023   1.79683
    A2        1.83160  -0.00001   0.00000   0.00002   0.00002   1.83162
    A3        1.97027  -0.00000   0.00000   0.00003   0.00003   1.97030
    A4        1.80811   0.00003   0.00000   0.00016   0.00016   1.80826
    D1        0.54293   0.00001   0.00000  -0.00011  -0.00011   0.54282
    D2       -1.52208  -0.00001   0.00000  -0.00025  -0.00025  -1.52233
    D3       -1.96510  -0.00002   0.00000  -0.00016  -0.00016  -1.96526
         Item               Value     Threshold  Converged?
 Maximum Force            0.000135     0.000450     YES
 RMS     Force            0.000063     0.000300     YES
 Maximum Displacement     0.000550     0.001800     YES
 RMS     Displacement     0.000267     0.001200     YES
 Predicted change in Energy=-3.822695D-08
 Optimization completed.
    -- Stationary point found.
                           ----------------------------
                           !   Optimized Parameters   !
                           ! (Angstroms and Degrees)  !
 --------------------------                            --------------------------
 ! Name  Definition              Value          Derivative Info.                !
 --------------------------------------------------------------------------------
 ! R1    R(1,2)                  1.722          -DE/DX =    0.0001              !
 ! R2    R(1,3)                  1.4574         -DE/DX =    0.0001              !
 ! R3    R(1,4)                  1.4488         -DE/DX =    0.0001              !
 ! R4    R(2,5)                  0.9731         -DE/DX =    0.0                 !
 ! A1    A(2,1,3)              102.9373         -DE/DX =    0.0001              !
 ! A2    A(2,1,4)              104.943          -DE/DX =    0.0                 !
 ! A3    A(3,1,4)              112.8884         -DE/DX =    0.0                 !
 ! A4    A(1,2,5)              103.5969         -DE/DX =    0.0                 !
 ! D1    D(3,1,2,5)             31.1075         -DE/DX =    0.0                 !
 ! D2    D(4,1,2,5)            -87.209          -DE/DX =    0.0                 !
 ! D3    D(2,1,3,4)           -112.592          -DE/DX =    0.0                 !
 --------------------------------------------------------------------------------
 GradGradGradGradGradGradGradGradGradGradGradGradGradGradGradGradGradGrad

                          Input orientation:                          
 ---------------------------------------------------------------------
 Center     Atomic      Atomic             Coordinates (Angstroms)
 Number     Number       Type             X           Y           Z
 ---------------------------------------------------------------------
      1         17           0       -0.168126    0.008965   -0.342312
      2          8           0        1.475001   -0.318738    0.055052
      3          8           0       -0.391414    1.321836    0.249750
      4          8           0       -0.926382   -1.039493    0.309526
      5          1           0        1.600511    0.138744    0.904688
 ---------------------------------------------------------------------
                    Distance matrix (angstroms):
                    1          2          3          4          5
     1  Cl   0.000000
     2  O    1.721962   0.000000
     3  O    1.457404   2.492568   0.000000
     4  O    1.448830   2.520096   2.421908   0.000000
     5  H    2.167932   0.973100   2.407575   2.850903   0.000000
 Stoichiometry    ClHO3
 Framework group  C1[X(ClHO3)]
 Deg. of freedom     9
 Full point group                 C1      NOp   1
 Largest Abelian subgroup         C1      NOp   1
 Largest concise Abelian subgroup C1      NOp   1
                         Standard orientation:                         
 ---------------------------------------------------------------------
 Center     Atomic      Atomic             Coordinates (Angstroms)
 Number     Number       Type             X           Y           Z
 ---------------------------------------------------------------------
      1         17           0       -0.168126    0.008965   -0.342312
      2          8           0        1.475002   -0.318734    0.055052
      3          8           0       -0.391418    1.321835    0.249750
      4          8           0       -0.926380   -1.039495    0.309526
      5          1           0        1.600510    0.138748    0.904688
 ---------------------------------------------------------------------
 Rotational constants (GHZ):           9.3051073           8.1514841           4.9825691
 1\1\GINC-GAMBA\FOpt\RB3LYP\Gen\Cl1H1O3\IRIKURA\30-Sep-2023\0\\# b3lyp/
 gen opt freq CPHF(Grid=OneStep)\\chloric acid (HO-ClO2), B3LYP/pcseg-2
 \\0,1\Cl,-0.168126,0.008965,-0.342312\O,1.475001,-0.318738,0.055052\O,
 -0.391414,1.321836,0.24975\O,-0.926382,-1.039493,0.309526\H,1.600511,0
 .138744,0.904688\\Version=ES64L-G16RevB.01\State=1-A\HF=-686.3730675\R
 MSD=5.015e-09\RMSF=6.123e-05\Dipole=0.4280357,0.1422432,-0.182905\Quad
 rupole=0.0818049,-2.5852073,2.5034025,0.5284441,2.672057,0.3068933\PG=
 C01 [X(Cl1H1O3)]\\@


 IT TAKES GREATER CHARACTER TO CARRY OFF GOOD FORTUNE THAN BAD.
                     FRENCH PROVERB.
 Job cpu time:       0 days  0 hours  0 minutes 55.7 seconds.
 Elapsed time:       0 days  0 hours  0 minutes 14.7 seconds.
 File lengths (MBytes):  RWF=     11 Int=      0 D2E=      0 Chk=      2 Scr=      1
 Normal termination of Gaussian 16 at Sat Sep 30 23:46:21 2023.
 Link1:  Proceeding to internal job step number  2.
 ------------------------------------------------------------------
 #N Geom=AllCheck Guess=TCheck SCRF=Check GenChk RB3LYP/ChkBas Freq
 ------------------------------------------------------------------
 1/10=4,29=7,30=1,38=1,40=1/1,3;
 2/12=2,40=1/2;
 3/5=7,6=2,11=2,14=-4,25=1,30=1,67=1,70=2,71=2,74=-5,82=7,116=1,140=1/1,2,3;
 4/5=101/1;
 5/5=2,38=6,98=1/2;
 8/6=4,10=90,11=11/1;
 11/6=1,8=1,9=11,15=111,16=1/1,2,10;
 10/6=1,60=-420/2;
 6/7=2,8=2,9=2,10=2,28=1/1;
 7/8=1,10=1,25=1/1,2,3,16;
 1/10=4,30=1/3;
 99//99;
 Structure from the checkpoint file:  "hoclo2.chk"
 -------------------------------------
 chloric acid (HO-ClO2), B3LYP/pcseg-2
 -------------------------------------
 Charge =  0 Multiplicity = 1
 Redundant internal coordinates found in file.  (old form).
 Cl,0,-0.168126,0.008965,-0.342312
 O,0,1.475001,-0.318738,0.055052
 O,0,-0.391414,1.321836,0.24975
 O,0,-0.926382,-1.039493,0.309526
 H,0,1.600511,0.138744,0.904688
 Recover connectivity data from disk.

 GradGradGradGradGradGradGradGradGradGradGradGradGradGradGradGradGradGrad
 Berny optimization.
 Initialization pass.
                           ----------------------------
                           !    Initial Parameters    !
                           ! (Angstroms and Degrees)  !
 --------------------------                            --------------------------
 ! Name  Definition              Value          Derivative Info.                !
 --------------------------------------------------------------------------------
 ! R1    R(1,2)                  1.722          calculate D2E/DX2 analytically  !
 ! R2    R(1,3)                  1.4574         calculate D2E/DX2 analytically  !
 ! R3    R(1,4)                  1.4488         calculate D2E/DX2 analytically  !
 ! R4    R(2,5)                  0.9731         calculate D2E/DX2 analytically  !
 ! A1    A(2,1,3)              102.9373         calculate D2E/DX2 analytically  !
 ! A2    A(2,1,4)              104.943          calculate D2E/DX2 analytically  !
 ! A3    A(3,1,4)              112.8884         calculate D2E/DX2 analytically  !
 ! A4    A(1,2,5)              103.5969         calculate D2E/DX2 analytically  !
 ! D1    D(3,1,2,5)             31.1075         calculate D2E/DX2 analytically  !
 ! D2    D(4,1,2,5)            -87.209          calculate D2E/DX2 analytically  !
 ! D3    D(2,1,3,4)           -112.592          calculate D2E/DX2 analytically  !
 --------------------------------------------------------------------------------
 Trust Radius=3.00D-01 FncErr=1.00D-07 GrdErr=1.00D-07 EigMax=2.50D+02 EigMin=1.00D-04
 Number of steps in this run=      2 maximum allowed number of steps=      2.
 GradGradGradGradGradGradGradGradGradGradGradGradGradGradGradGradGradGrad

                          Input orientation:                          
 ---------------------------------------------------------------------
 Center     Atomic      Atomic             Coordinates (Angstroms)
 Number     Number       Type             X           Y           Z
 ---------------------------------------------------------------------
      1         17           0       -0.168126    0.008965   -0.342312
      2          8           0        1.475001   -0.318738    0.055052
      3          8           0       -0.391414    1.321836    0.249750
      4          8           0       -0.926382   -1.039493    0.309526
      5          1           0        1.600511    0.138744    0.904688
 ---------------------------------------------------------------------
                    Distance matrix (angstroms):
                    1          2          3          4          5
     1  Cl   0.000000
     2  O    1.721962   0.000000
     3  O    1.457404   2.492568   0.000000
     4  O    1.448830   2.520096   2.421908   0.000000
     5  H    2.167932   0.973100   2.407575   2.850903   0.000000
 Stoichiometry    ClHO3
 Framework group  C1[X(ClHO3)]
 Deg. of freedom     9
 Full point group                 C1      NOp   1
 Largest Abelian subgroup         C1      NOp   1
 Largest concise Abelian subgroup C1      NOp   1
                         Standard orientation:                         
 ---------------------------------------------------------------------
 Center     Atomic      Atomic             Coordinates (Angstroms)
 Number     Number       Type             X           Y           Z
 ---------------------------------------------------------------------
      1         17           0       -0.168126    0.008965   -0.342312
      2          8           0        1.475002   -0.318734    0.055052
      3          8           0       -0.391418    1.321835    0.249750
      4          8           0       -0.926380   -1.039495    0.309526
      5          1           0        1.600510    0.138748    0.904688
 ---------------------------------------------------------------------
 Rotational constants (GHZ):           9.3051073           8.1514841           4.9825691
 Basis read from chk: "hoclo2.chk" (5D, 7F)
 There are   159 symmetry adapted cartesian basis functions of A   symmetry.
 There are   138 symmetry adapted basis functions of A   symmetry.
   138 basis functions,   241 primitive gaussians,   159 cartesian basis functions
    21 alpha electrons       21 beta electrons
       nuclear repulsion energy       193.6018436132 Hartrees.
 NAtoms=    5 NActive=    5 NUniq=    5 SFac= 1.00D+00 NAtFMM=   60 NAOKFM=F Big=F
 Integral buffers will be    131072 words long.
 Raffenetti 2 integral format.
 Two-electron integral symmetry is turned on.
 One-electron integrals computed using PRISM.
 NBasis=   138 RedAO= T EigKep=  3.13D-03  NBF=   138
 NBsUse=   138 1.00D-06 EigRej= -1.00D+00 NBFU=   138
 Initial guess from the checkpoint file:  "hoclo2.chk"
 B after Tr=     0.000000    0.000000    0.000000
         Rot=    1.000000   -0.000000    0.000000   -0.000000 Ang=   0.00 deg.
 Keep R1 ints in memory in canonical form, NReq=49937975.
 Requested convergence on RMS density matrix=1.00D-08 within 128 cycles.
 Requested convergence on MAX density matrix=1.00D-06.
 Requested convergence on             energy=1.00D-06.
 No special actions if energy rises.
 SCF Done:  E(RB3LYP) =  -686.373067493     A.U. after    1 cycles
            NFock=  1  Conv=0.24D-08     -V/T= 2.0016
 DoSCS=F DFT=T ScalE2(SS,OS)=  1.000000  1.000000
 Range of M.O.s used for correlation:     1   138
 NBasis=   138 NAE=    21 NBE=    21 NFC=     0 NFV=     0
 NROrb=    138 NOA=    21 NOB=    21 NVA=   117 NVB=   117
 Symmetrizing basis deriv contribution to polar:
 IMax=3 JMax=2 DiffMx= 0.00D+00
 G2DrvN: will do     6 centers at a time, making    1 passes.
 Calling FoFCou, ICntrl=  3107 FMM=F I1Cent=   0 AccDes= 0.00D+00.
 End of G2Drv F.D. properties file   721 does not exist.
 End of G2Drv F.D. properties file   722 does not exist.
 End of G2Drv F.D. properties file   788 does not exist.
          IDoAtm=11111
          Differentiating once with respect to electric field.
                with respect to dipole field.
          Differentiating once with respect to nuclear coordinates.
 Keep R1 ints in memory in canonical form, NReq=49933802.
          There are    18 degrees of freedom in the 1st order CPHF.  IDoFFX=6 NUNeed=     3.
     15 vectors produced by pass  0 Test12= 1.36D-14 5.56D-09 XBig12= 3.79D+01 3.54D+00.
 AX will form    15 AO Fock derivatives at one time.
     15 vectors produced by pass  1 Test12= 1.36D-14 5.56D-09 XBig12= 2.32D+01 1.10D+00.
     15 vectors produced by pass  2 Test12= 1.36D-14 5.56D-09 XBig12= 6.68D-01 2.59D-01.
     15 vectors produced by pass  3 Test12= 1.36D-14 5.56D-09 XBig12= 1.53D-02 2.64D-02.
     15 vectors produced by pass  4 Test12= 1.36D-14 5.56D-09 XBig12= 1.01D-04 2.49D-03.
     15 vectors produced by pass  5 Test12= 1.36D-14 5.56D-09 XBig12= 4.43D-07 9.97D-05.
     11 vectors produced by pass  6 Test12= 1.36D-14 5.56D-09 XBig12= 1.83D-09 9.00D-06.
      3 vectors produced by pass  7 Test12= 1.36D-14 5.56D-09 XBig12= 3.37D-12 3.11D-07.
      2 vectors produced by pass  8 Test12= 1.36D-14 5.56D-09 XBig12= 6.17D-15 1.08D-08.
 InvSVY:  IOpt=1 It=  1 EMax= 1.55D-15
 Solved reduced A of dimension   106 with    15 vectors.
 Isotropic polarizability for W=    0.000000       29.62 Bohr**3.
 End of Minotr F.D. properties file   721 does not exist.
 End of Minotr F.D. properties file   722 does not exist.
 End of Minotr F.D. properties file   788 does not exist.

 **********************************************************************

            Population analysis using the SCF Density.

 **********************************************************************

 Orbital symmetries:
       Occupied  (A) (A) (A) (A) (A) (A) (A) (A) (A) (A) (A) (A)
                 (A) (A) (A) (A) (A) (A) (A) (A) (A)
       Virtual   (A) (A) (A) (A) (A) (A) (A) (A) (A) (A) (A) (A)
                 (A) (A) (A) (A) (A) (A) (A) (A) (A) (A) (A) (A)
                 (A) (A) (A) (A) (A) (A) (A) (A) (A) (A) (A) (A)
                 (A) (A) (A) (A) (A) (A) (A) (A) (A) (A) (A) (A)
                 (A) (A) (A) (A) (A) (A) (A) (A) (A) (A) (A) (A)
                 (A) (A) (A) (A) (A) (A) (A) (A) (A) (A) (A) (A)
                 (A) (A) (A) (A) (A) (A) (A) (A) (A) (A) (A) (A)
                 (A) (A) (A) (A) (A) (A) (A) (A) (A) (A) (A) (A)
                 (A) (A) (A) (A) (A) (A) (A) (A) (A) (A) (A) (A)
                 (A) (A) (A) (A) (A) (A) (A) (A) (A)
 The electronic state is 1-A.
 Alpha  occ. eigenvalues -- -101.81339 -19.20479 -19.19155 -19.19035  -9.72145
 Alpha  occ. eigenvalues --   -7.48344  -7.48210  -7.47492  -1.25678  -1.08685
 Alpha  occ. eigenvalues --   -1.06507  -0.76867  -0.60888  -0.57625  -0.55034
 Alpha  occ. eigenvalues --   -0.49231  -0.41521  -0.39481  -0.37560  -0.35031
 Alpha  occ. eigenvalues --   -0.33636
 Alpha virt. eigenvalues --   -0.09086   0.00046   0.00432   0.01355   0.18751
 Alpha virt. eigenvalues --    0.23420   0.25651   0.26416   0.29760   0.31167
 Alpha virt. eigenvalues --    0.32090   0.32724   0.33722   0.37078   0.41061
 Alpha virt. eigenvalues --    0.42017   0.44062   0.45543   0.47764   0.48200
 Alpha virt. eigenvalues --    0.52101   0.60517   0.68096   0.73645   0.79770
 Alpha virt. eigenvalues --    0.85375   0.93649   1.04434   1.13039   1.31978
 Alpha virt. eigenvalues --    1.35586   1.38003   1.42368   1.46085   1.52550
 Alpha virt. eigenvalues --    1.55134   1.56115   1.66795   1.71578   1.73676
 Alpha virt. eigenvalues --    1.77745   1.79509   1.87463   1.89060   1.93568
 Alpha virt. eigenvalues --    2.05974   2.08587   2.10104   2.14110   2.18191
 Alpha virt. eigenvalues --    2.19629   2.22968   2.30998   2.34921   2.40920
 Alpha virt. eigenvalues --    2.44542   2.54199   2.57297   2.59878   2.69832
 Alpha virt. eigenvalues --    2.71704   2.73733   2.86451   3.17319   3.37177
 Alpha virt. eigenvalues --    3.43703   3.51100   3.52829   3.58844   3.64282
 Alpha virt. eigenvalues --    3.68525   3.71435   3.86298   3.91583   3.92646
 Alpha virt. eigenvalues --    3.93842   3.94244   3.94791   3.95671   4.01823
 Alpha virt. eigenvalues --    4.04306   4.10033   4.18852   4.26372   4.34031
 Alpha virt. eigenvalues --    4.43848   4.49190   4.49802   4.54472   4.57206
 Alpha virt. eigenvalues --    4.60721   4.74444   4.82101   4.83615   4.90900
 Alpha virt. eigenvalues --    4.93021   5.65717   5.96126   5.97302   5.98336
 Alpha virt. eigenvalues --    6.00650   6.04299   6.06170   6.13752   6.19032
 Alpha virt. eigenvalues --    6.26682   6.29159   6.35218   6.37444   6.43054
 Alpha virt. eigenvalues --    6.45395   6.58445   6.65461   7.02321   7.17455
 Alpha virt. eigenvalues --    7.81245  38.06148
          Condensed to atoms (all electrons):
               1          2          3          4          5
     1  Cl  15.456366   0.084808   0.268396   0.276143  -0.006853
     2  O    0.084808   8.062913  -0.066161  -0.054912   0.310206
     3  O    0.268396  -0.066161   8.264388  -0.067666   0.013122
     4  O    0.276143  -0.054912  -0.067666   8.221729   0.003809
     5  H   -0.006853   0.310206   0.013122   0.003809   0.472820
 Mulliken charges:
               1
     1  Cl   0.921140
     2  O   -0.336853
     3  O   -0.412079
     4  O   -0.379103
     5  H    0.206896
 Sum of Mulliken charges =  -0.00000
 Mulliken charges with hydrogens summed into heavy atoms:
               1
     1  Cl   0.921140
     2  O   -0.129958
     3  O   -0.412079
     4  O   -0.379103
 APT charges:
               1
     1  Cl   1.713397
     2  O   -0.685252
     3  O   -0.651379
     4  O   -0.628109
     5  H    0.251343
 Sum of APT charges =  -0.00000
 APT charges with hydrogens summed into heavy atoms:
               1
     1  Cl   1.713397
     2  O   -0.433909
     3  O   -0.651379
     4  O   -0.628109
 Electronic spatial extent (au):  <R**2>=            266.9614
 Charge=             -0.0000 electrons
 Dipole moment (field-independent basis, Debye):
    X=              1.0880    Y=              0.3616    Z=             -0.4649  Tot=              1.2371
 Quadrupole moment (field-independent basis, Debye-Ang):
   XX=            -29.7701   YY=            -33.3573   ZZ=            -26.5129
   XY=              0.7108   XZ=              3.5940   YZ=              0.4128
 Traceless Quadrupole moment (field-independent basis, Debye-Ang):
   XX=              0.1100   YY=             -3.4772   ZZ=              3.3672
   XY=              0.7108   XZ=              3.5940   YZ=              0.4128
 Octapole moment (field-independent basis, Debye-Ang**2):
  XXX=              0.7603  YYY=             -1.8139  ZZZ=              0.5231  XYY=              2.0027
  XXY=              3.4459  XXZ=              3.6050  XZZ=              2.8458  YZZ=              0.2840
  YYZ=             -1.5222  XYZ=              0.6363
 Hexadecapole moment (field-independent basis, Debye-Ang**3):
 XXXX=           -142.6857 YYYY=           -131.2930 ZZZZ=            -39.4694 XXXY=              2.6957
 XXXZ=             10.2661 YYYX=              0.7181 YYYZ=              0.3670 ZZZX=              4.2565
 ZZZY=              0.4170 XXYY=            -47.4658 XXZZ=            -26.2377 YYZZ=            -27.7492
 XXYZ=              1.1182 YYXZ=              0.3892 ZZXY=              0.5115
 N-N= 1.936018436132D+02 E-N=-2.014197958973D+03  KE= 6.852634460035D+02
  Exact polarizability:  34.911   0.449  32.678   0.485   0.446  21.258
 Approx polarizability:  59.293   1.456  61.215  -1.914   1.090  32.272
 Calling FoFJK, ICntrl=    100127 FMM=F ISym2X=0 I1Cent= 0 IOpClX= 0 NMat=1 NMatS=1 NMatT=0.
 Full mass-weighted force constant matrix:
 Low frequencies ---   -7.7991   -6.1288   -5.6222    0.0032    0.0035    0.0036
 Low frequencies ---   91.3551  370.0958  411.3293
 Diagonal vibrational polarizability:
       21.0470730     194.4514352      84.0063505
 Harmonic frequencies (cm**-1), IR intensities (KM/Mole), Raman scattering
 activities (A**4/AMU), depolarization ratios for plane and unpolarized
 incident light, reduced masses (AMU), force constants (mDyne/A),
 and normal coordinates:
                      1                      2                      3
                      A                      A                      A
 Frequencies --     91.3456               370.0958               411.3293
 Red. masses --      1.1173                13.6287                 6.3770
 Frc consts  --      0.0055                 1.0998                 0.6357
 IR Inten    --     83.4823                17.0172                 4.0533
  Atom  AN      X      Y      Z        X      Y      Z        X      Y      Z
     1  17    -0.02  -0.01  -0.00     0.01  -0.21   0.01     0.06   0.00   0.07
     2   8    -0.02  -0.02   0.04     0.15   0.56  -0.08     0.37  -0.13  -0.08
     3   8     0.05  -0.00   0.03     0.33  -0.19   0.07    -0.32  -0.03  -0.02
     4   8    -0.01  -0.01  -0.03    -0.49   0.09  -0.04    -0.23   0.15  -0.03
     5   1     0.22   0.85  -0.46    -0.36   0.01   0.29     0.75   0.13  -0.28
                      4                      5                      6
                      A                      A                      A
 Frequencies --    532.6316               619.6265              1026.5720
 Red. masses --     14.0504                13.3766                 6.1263
 Frc consts  --      2.3485                 3.0259                 3.8039
 IR Inten    --     40.5743               204.6517                63.4859
  Atom  AN      X      Y      Z        X      Y      Z        X      Y      Z
     1  17     0.21  -0.04  -0.24    -0.32   0.06  -0.28     0.12  -0.07  -0.13
     2   8    -0.28  -0.01   0.02     0.50  -0.07   0.26     0.04  -0.04  -0.03
     3   8    -0.22  -0.39   0.27     0.12  -0.11   0.15    -0.09   0.36   0.18
     4   8     0.06   0.47   0.25     0.12   0.06   0.17    -0.16  -0.20   0.14
     5   1    -0.41   0.29  -0.12    -0.51  -0.03   0.38    -0.80   0.25  -0.05
                      7                      8                      9
                      A                      A                      A
 Frequencies --   1158.5651              1190.9716              3690.8459
 Red. masses --      2.2783                 2.7757                 1.0662
 Frc consts  --      1.8017                 2.3197                 8.5578
 IR Inten    --    148.2212               174.0221                91.6896
  Atom  AN      X      Y      Z        X      Y      Z        X      Y      Z
     1  17     0.03   0.08  -0.07    -0.04  -0.14  -0.04    -0.00   0.00   0.00
     2   8    -0.05   0.04   0.05    -0.04   0.04   0.04    -0.01  -0.03  -0.05
     3   8     0.02  -0.06  -0.00    -0.01   0.17   0.09     0.00  -0.00  -0.00
     4   8    -0.10  -0.15   0.11     0.08   0.11  -0.06     0.00   0.00  -0.00
     5   1     0.93  -0.24   0.05     0.90  -0.31   0.08     0.14   0.47   0.87

 -------------------
 - Thermochemistry -
 -------------------
 Temperature   298.150 Kelvin.  Pressure   1.00000 Atm.
 Atom     1 has atomic number 17 and mass  34.96885
 Atom     2 has atomic number  8 and mass  15.99491
 Atom     3 has atomic number  8 and mass  15.99491
 Atom     4 has atomic number  8 and mass  15.99491
 Atom     5 has atomic number  1 and mass   1.00783
 Molecular mass:    83.96142 amu.
 Principal axes and moments of inertia in atomic units:
                           1         2         3
     Eigenvalues --   193.95168 221.40032 362.21097
           X            0.99915   0.02857   0.02985
           Y           -0.02868   0.99958   0.00345
           Z           -0.02974  -0.00430   0.99955
 This molecule is an asymmetric top.
 Rotational symmetry number  1.
 Rotational temperatures (Kelvin)      0.44657     0.39121     0.23913
 Rotational constants (GHZ):           9.30511     8.15148     4.98257
 Zero-point vibrational energy      54382.1 (Joules/Mol)
                                   12.99764 (Kcal/Mol)
 Warning -- explicit consideration of   5 degrees of freedom as
           vibrations may cause significant error
 Vibrational temperatures:    131.43   532.49   591.81   766.34   891.50
          (Kelvin)           1477.01  1666.92  1713.54  5310.30
 
 Zero-point correction=                           0.020713 (Hartree/Particle)
 Thermal correction to Energy=                    0.025356
 Thermal correction to Enthalpy=                  0.026300
 Thermal correction to Gibbs Free Energy=        -0.007083
 Sum of electronic and zero-point Energies=           -686.352354
 Sum of electronic and thermal Energies=              -686.347712
 Sum of electronic and thermal Enthalpies=            -686.346767
 Sum of electronic and thermal Free Energies=         -686.380150
 
                     E (Thermal)             CV                S
                      KCal/Mol        Cal/Mol-Kelvin    Cal/Mol-Kelvin
 Total                   15.911             13.858             70.260
 Electronic               0.000              0.000              0.000
 Translational            0.889              2.981             39.197
 Rotational               0.889              2.981             24.257
 Vibrational             14.134              7.896              6.807
 Vibration     1          0.602              1.955              3.631
 Vibration     2          0.742              1.534              1.079
 Vibration     3          0.775              1.446              0.922
 Vibration     4          0.888              1.178              0.581
 Vibration     5          0.980              0.990              0.417
                       Q            Log10(Q)             Ln(Q)
 Total Bot       0.181089D+04          3.257891          7.501572
 Total V=0       0.609860D+13         12.785230         29.439081
 Vib (Bot)       0.134139D-08         -8.872444        -20.429558
 Vib (Bot)    1  0.225031D+01          0.352243          0.811070
 Vib (Bot)    2  0.491891D+00         -0.308131         -0.709498
 Vib (Bot)    3  0.429694D+00         -0.366840         -0.844681
 Vib (Bot)    4  0.299525D+00         -0.523567         -1.205558
 Vib (Bot)    5  0.236107D+00         -0.626891         -1.443471
 Vib (V=0)       0.451746D+01          0.654894          1.507950
 Vib (V=0)    1  0.280519D+01          0.447963          1.031472
 Vib (V=0)    2  0.120140D+01          0.079686          0.183485
 Vib (V=0)    3  0.115927D+01          0.064185          0.147791
 Vib (V=0)    4  0.108285D+01          0.034569          0.079597
 Vib (V=0)    5  0.105294D+01          0.022405          0.051590
 Electronic      0.100000D+01          0.000000          0.000000
 Translational   0.302394D+08          7.480574         17.224657
 Rotational      0.446439D+05          4.649762         10.706473
 ***** Axes restored to original set *****
 -------------------------------------------------------------------
 Center     Atomic                   Forces (Hartrees/Bohr)
 Number     Number              X              Y              Z
 -------------------------------------------------------------------
      1       17           0.000035234    0.000016748   -0.000108810
      2        8           0.000068439    0.000001734    0.000057277
      3        8          -0.000037144    0.000106353    0.000037394
      4        8          -0.000073085   -0.000098335    0.000056452
      5        1           0.000006557   -0.000026500   -0.000042313
 -------------------------------------------------------------------
 Cartesian Forces:  Max     0.000108810 RMS     0.000061184
 FormGI is forming the generalized inverse of G from B-inverse, IUseBI=4.

 GradGradGradGradGradGradGradGradGradGradGradGradGradGradGradGradGradGrad
 Berny optimization.
 Internal  Forces:  Max     0.000134902 RMS     0.000063425
 Search for a local minimum.
 Step number   1 out of a maximum of    2
 All quantities printed in internal units (Hartrees-Bohrs-Radians)
 Second derivative matrix not updated -- analytic derivatives used.
 The second derivative matrix:
                          R1        R2        R3        R4        A1
           R1           0.13883
           R2           0.01546   0.49614
           R3           0.01002  -0.00122   0.52329
           R4           0.00878  -0.00329  -0.00246   0.48931
           A1          -0.01249   0.02373  -0.02014  -0.00398   0.26870
           A2           0.00609  -0.01424   0.00455  -0.00091  -0.05790
           A3          -0.01094   0.00610   0.00852   0.00116  -0.03959
           A4           0.03096   0.00680   0.00627   0.01188  -0.04693
           D1          -0.00661   0.00821  -0.00252  -0.00140   0.01700
           D2           0.00841  -0.00294  -0.00524  -0.00063  -0.03028
           D3           0.00444   0.00088   0.00222   0.00276  -0.06427
                          A2        A3        A4        D1        D2
           A2           0.08689
           A3          -0.03683   0.17402
           A4           0.00285  -0.00062   0.15024
           D1          -0.01608   0.08390  -0.01062   0.04771
           D2           0.01439  -0.07768   0.00895  -0.04628   0.04715
           D3          -0.05364  -0.00906   0.02288  -0.02627   0.03294
                          D3
           D3           0.10189
 ITU=  0
     Eigenvalues ---    0.00047   0.10790   0.14820   0.15982   0.26760
     Eigenvalues ---    0.32297   0.48919   0.50141   0.52660
 Angle between quadratic step and forces=  78.20 degrees.
 Linear search not attempted -- first point.
 Iteration  1 RMS(Cart)=  0.00088370 RMS(Int)=  0.00000084
 Iteration  2 RMS(Cart)=  0.00000065 RMS(Int)=  0.00000000
 Variable       Old X    -DE/DX   Delta X   Delta X   Delta X     New X
                                 (Linear)    (Quad)   (Total)
    R1        3.25404   0.00008   0.00000   0.00050   0.00050   3.25454
    R2        2.75409   0.00012   0.00000   0.00018   0.00018   2.75428
    R3        2.73789   0.00013   0.00000   0.00029   0.00029   2.73818
    R4        1.83889  -0.00005   0.00000  -0.00010  -0.00010   1.83879
    A1        1.79659   0.00005   0.00000   0.00030   0.00030   1.79689
    A2        1.83160  -0.00001   0.00000   0.00001   0.00001   1.83161
    A3        1.97027  -0.00000   0.00000  -0.00006  -0.00006   1.97022
    A4        1.80811   0.00003   0.00000   0.00019   0.00019   1.80830
    D1        0.54293   0.00001   0.00000   0.00203   0.00203   0.54496
    D2       -1.52208  -0.00001   0.00000   0.00196   0.00196  -1.52012
    D3       -1.96510  -0.00002   0.00000  -0.00015  -0.00015  -1.96525
         Item               Value     Threshold  Converged?
 Maximum Force            0.000135     0.000450     YES
 RMS     Force            0.000063     0.000300     YES
 Maximum Displacement     0.001834     0.001800     NO 
 RMS     Displacement     0.000884     0.001200     YES
 Predicted change in Energy=-6.278986D-08
                           ----------------------------
                           ! Non-Optimized Parameters !
                           ! (Angstroms and Degrees)  !
 --------------------------                            --------------------------
 ! Name  Definition              Value          Derivative Info.                !
 --------------------------------------------------------------------------------
 ! R1    R(1,2)                  1.7222         -DE/DX =    0.0001              !
 ! R2    R(1,3)                  1.4575         -DE/DX =    0.0001              !
 ! R3    R(1,4)                  1.449          -DE/DX =    0.0001              !
 ! R4    R(2,5)                  0.973          -DE/DX =    0.0                 !
 ! A1    A(2,1,3)              102.9544         -DE/DX =    0.0001              !
 ! A2    A(2,1,4)              104.9434         -DE/DX =    0.0                 !
 ! A3    A(3,1,4)              112.8852         -DE/DX =    0.0                 !
 ! A4    A(1,2,5)              103.608          -DE/DX =    0.0                 !
 ! D1    D(3,1,2,5)             31.224          -DE/DX =    0.0                 !
 ! D2    D(4,1,2,5)            -87.0964         -DE/DX =    0.0                 !
 ! D3    D(2,1,3,4)           -112.6005         -DE/DX =    0.0                 !
 --------------------------------------------------------------------------------
 GradGradGradGradGradGradGradGradGradGradGradGradGradGradGradGradGradGrad


 ----------------------------------------------------------------------

 Electric dipole moment (input orientation):
 (Debye = 10**-18 statcoulomb cm , SI units = C m)
                  (au)            (Debye)         (10**-30 SI)
   Tot        0.486725D+00      0.123713D+01      0.412663D+01
   x          0.428034D+00      0.108796D+01      0.362903D+01
   y          0.142244D+00      0.361549D+00      0.120600D+01
   z         -0.182905D+00     -0.464898D+00     -0.155073D+01

 Dipole polarizability, Alpha (input orientation).
 (esu units = cm**3 , SI units = C**2 m**2 J**-1)
 Alpha(0;0):
               (au)            (10**-24 esu)      (10**-40 SI)
   iso        0.296159D+02      0.438862D+01      0.488300D+01
   aniso      0.127595D+02      0.189077D+01      0.210377D+01
   xx         0.349113D+02      0.517332D+01      0.575610D+01
   yx         0.449417D+00      0.665967D-01      0.740988D-01
   yy         0.326779D+02      0.484237D+01      0.538786D+01
   zx         0.484564D+00      0.718049D-01      0.798938D-01
   zy         0.446332D+00      0.661396D-01      0.735902D-01
   zz         0.212584D+02      0.315017D+01      0.350503D+01

 ----------------------------------------------------------------------

 Dipole orientation:
    17         -0.71115450          0.11380731         -0.03136291
     8          1.42449596          1.05523025          2.23611945
     8         -0.37545493         -2.61894233         -0.09782240
     8          0.11481218          1.34444089         -2.33340000
     1          2.77882536         -0.18053649          2.09399623

 Electric dipole moment (dipole orientation):
 (Debye = 10**-18 statcoulomb cm , SI units = C m)
                  (au)            (Debye)         (10**-30 SI)
   Tot        0.486725D+00      0.123713D+01      0.412663D+01
   x          0.000000D+00      0.000000D+00      0.000000D+00
   y          0.000000D+00      0.000000D+00      0.000000D+00
   z          0.486725D+00      0.123713D+01      0.412663D+01

 Dipole polarizability, Alpha (dipole orientation).
 (esu units = cm**3 , SI units = C**2 m**2 J**-1)
 Alpha(0;0):
               (au)            (10**-24 esu)      (10**-40 SI)
   iso        0.296159D+02      0.438862D+01      0.488300D+01
   aniso      0.127595D+02      0.189077D+01      0.210377D+01
   xx         0.244275D+02      0.361979D+01      0.402756D+01
   yx         0.259116D+01      0.383971D+00      0.427225D+00
   yy         0.318148D+02      0.471447D+01      0.524555D+01
   zx         0.505860D+01      0.749608D+00      0.834051D+00
   zy        -0.127273D+01     -0.188600D+00     -0.209846D+00
   zz         0.326052D+02      0.483160D+01      0.537588D+01

 ----------------------------------------------------------------------
 1\1\GINC-GAMBA\Freq\RB3LYP\Gen\Cl1H1O3\IRIKURA\30-Sep-2023\0\\#N Geom=
 AllCheck Guess=TCheck SCRF=Check GenChk RB3LYP/ChkBas Freq\\chloric ac
 id (HO-ClO2), B3LYP/pcseg-2\\0,1\Cl,-0.168126,0.008965,-0.342312\O,1.4
 75001,-0.318738,0.055052\O,-0.391414,1.321836,0.24975\O,-0.926382,-1.0
 39493,0.309526\H,1.600511,0.138744,0.904688\\Version=ES64L-G16RevB.01\
 State=1-A\HF=-686.3730675\RMSD=2.365e-09\RMSF=6.118e-05\ZeroPoint=0.02
 07131\Thermal=0.025356\Dipole=0.4280345,0.1422443,-0.1829049\DipoleDer
 iv=2.1461258,0.0815616,0.0343565,0.0546697,2.0536654,-0.0426257,-0.084
 263,-0.0080475,0.9404011,-1.2405385,0.0960033,-0.1180007,0.0015977,-0.
 4545249,0.072592,-0.4546353,0.1296186,-0.3606939,-0.4816824,0.0533062,
 -0.016581,0.2538004,-1.0588226,-0.0167128,0.1248181,-0.3905382,-0.4136
 31,-0.6545231,-0.2831785,0.0268618,-0.4026575,-0.8052444,0.0400944,0.3
 07834,0.3267006,-0.4245608,0.2306182,0.0523074,0.0733633,0.0925898,0.2
 649265,-0.0533478,0.1062462,-0.0577335,0.2584846\Polar=34.9113091,0.44
 94168,32.6779145,0.4845637,0.446332,21.2583834\Quadrupole=0.0818032,-2
 .5852067,2.5034035,0.5284435,2.6720574,0.3068938\PG=C01 [X(Cl1H1O3)]\N
 Imag=0\\0.35989170,0.11365174,0.71576994,-0.07140920,0.01358951,0.4865
 3823,-0.09068077,0.01370462,-0.00076671,0.15198075,-0.01032076,-0.0473
 7325,-0.02370154,-0.00470637,0.16532880,-0.05872227,0.00234350,-0.0987
 4495,0.05632729,0.21455314,0.41161878,-0.07725658,0.05675115,0.0183682
 0,-0.00813698,0.03507282,0.02004564,0.06786038,0.04354330,-0.38865387,
 -0.13660093,0.01002451,-0.00536870,-0.00201463,-0.06340471,0.41638058,
 0.02801167,-0.18569695,-0.17651380,0.00129944,0.00960856,0.02412342,-0
 .03509995,0.15802691,0.11576930,-0.17099161,-0.17133050,0.09869621,-0.
 01590778,-0.01468998,0.01266173,0.00999405,0.00950231,-0.00185840,0.17
 653467,-0.15486414,-0.29038299,0.13295725,0.00199804,0.00453804,-0.007
 00297,-0.02404925,-0.01778227,0.02216722,0.17914519,0.30422408,0.11765
 345,0.17182211,-0.20397779,-0.00280057,-0.00268723,0.02780795,-0.00710
 946,-0.01820525,0.03580319,-0.11382030,-0.14998709,0.14162728,-0.02096
 274,-0.01277701,-0.04488849,-0.03725522,-0.00535570,-0.03031240,0.0075
 3913,0.00033458,0.00764724,0.00037067,-0.00222984,0.00607688,0.0503081
 7,0.00798986,0.01064017,0.01375571,-0.02102081,-0.11712489,-0.20787905
 ,-0.00437000,-0.00457575,-0.00410574,-0.00262701,-0.00059685,-0.000942
 53,0.02002797,0.11165732,-0.01553365,-0.00205818,-0.00730169,-0.054059
 46,-0.19777292,-0.36480520,0.00379557,-0.00120610,0.00081789,0.0043207
 6,0.00186559,-0.00126062,0.06147678,0.19917161,0.37254962\\-0.00003523
 ,-0.00001675,0.00010881,-0.00006844,-0.00000173,-0.00005728,0.00003714
 ,-0.00010635,-0.00003739,0.00007309,0.00009833,-0.00005645,-0.00000656
 ,0.00002650,0.00004231\\\@


 THE NUMBERS ARE MEANINGLESS, BUT THE TRENDS ARE IMPORTANT.
     -- LARRY BURGGRAF
 Job cpu time:       0 days  0 hours  5 minutes 46.0 seconds.
 Elapsed time:       0 days  0 hours  1 minutes 26.6 seconds.
 File lengths (MBytes):  RWF=     16 Int=      0 D2E=      0 Chk=      3 Scr=      1
 Normal termination of Gaussian 16 at Sat Sep 30 23:47:48 2023.
 AtFile(1): ccpvtz-f12.gbs
            -H     0
            S    3   1.00
                 82.6400000              0.0020060
                 12.4100000              0.0153430
                  2.8240000              0.0755790
            S    1   1.00
                  0.7977000              1.0000000
            S    1   1.00
                  0.2581000              1.0000000
            S    1   1.00
                  0.0898900              1.0000000
            P    1   1.00
                  1.5513000              1.0000000
            P    1   1.00
                  0.5580000              1.0000000
            P    1   1.00
                  0.2007000              1.0000000
            D    1   1.00
                  0.4648000              1.0000000
            ****
            -He     0
            S    4   1.00
                528.5000000              0.0009400
                 79.3100000              0.0072140
                 18.0500000              0.0359750
                  5.0850000              0.1277820
            S    1   1.00
                  1.6090000              1.0000000
            S    1   1.00
                  0.5363000              1.0000000
            S    1   1.00
                  0.1833000              1.0000000
            S    1   1.00
                  0.0481900              1.0000000
            P    1   1.00
                  3.7026000              1.0000000
            P    1   1.00
                  1.2284000              1.0000000
            P    1   1.00
                  0.4075000              1.0000000
            D    1   1.00
                  0.6525000              1.0000000
            ****
            -Li     0
            S    9   1.00
               6601.0000000              0.0001170
                989.7000000              0.0009110
                225.7000000              0.0047280
                 64.2900000              0.0191970
                 21.1800000              0.0630470
                  7.7240000              0.1632080
                  3.0030000              0.3148270
                  1.2120000              0.3939360
                  0.4930000              0.1969180
            S    9   1.00
               6601.0000000             -0.0000180
                989.7000000             -0.0001420
                225.7000000             -0.0007410
                 64.2900000             -0.0030200
                 21.1800000             -0.0101230
                  7.7240000             -0.0270940
                  3.0030000             -0.0573590
                  1.2120000             -0.0938950
                  0.4930000             -0.1210910
            S    1   1.00
                  0.0951500              1.0000000
            S    1   1.00
                  0.0479100              1.0000000
            S    1   1.00
                  0.0222000              1.0000000
            S    1   1.00
                  0.0064000              1.0000000
            P    2   1.00
                  6.2500000              0.0033880
                  1.3700000              0.0193160
            P    1   1.00
                  0.3672000              1.0000000
            P    1   1.00
                  0.1192000              1.0000000
            P    1   1.00
                  0.0447400              1.0000000
            P    1   1.00
                  0.0179500              1.0000000
            P    1   1.00
                  0.0075000              1.0000000
            D    1   1.00
                  0.2351180              1.0000000
            D    1   1.00
                  0.1194040              1.0000000
            D    1   1.00
                  0.0606390              1.0000000
            F    1   1.00
                  0.1637750              1.0000000
            F    1   1.00
                  0.0759100              1.0000000
            ****
            -Be     0
            S    9   1.00
              14630.0000000              0.0000920
               2191.0000000              0.0007130
                498.2000000              0.0037350
                140.9000000              0.0154680
                 45.8600000              0.0528740
                 16.4700000              0.1456940
                  6.3190000              0.3026810
                  2.5350000              0.4049360
                  1.0350000              0.2223870
            S    9   1.00
              14630.0000000             -0.0000170
               2191.0000000             -0.0001300
                498.2000000             -0.0006790
                140.9000000             -0.0028570
                 45.8600000             -0.0098130
                 16.4700000             -0.0286090
                  6.3190000             -0.0637600
                  2.5350000             -0.1172310
                  1.0350000             -0.1212020
            S    1   1.00
                  0.2528000              1.0000000
            S    1   1.00
                  0.1052000              1.0000000
            S    1   1.00
                  0.0426100              1.0000000
            S    1   1.00
                  0.0141000              1.0000000
            P    2   1.00
                 14.0300000              0.0040990
                  3.1680000              0.0256260
            P    1   1.00
[...]
 the user acknowledges that Gaussian, Inc. is engaged in the
 business of creating and licensing software in the field of
 computational chemistry and represents and warrants to the
 licensee that it is not a competitor of Gaussian, Inc. and that
 it will not use this program in any manner prohibited above.
 ---------------------------------------------------------------
  

 Cite this work as:
 Gaussian 16, Revision B.01,
 M. J. Frisch, G. W. Trucks, H. B. Schlegel, G. E. Scuseria, 
 M. A. Robb, J. R. Cheeseman, G. Scalmani, V. Barone, 
 G. A. Petersson, H. Nakatsuji, X. Li, M. Caricato, A. V. Marenich, 
 J. Bloino, B. G. Janesko, R. Gomperts, B. Mennucci, H. P. Hratchian, 
 J. V. Ortiz, A. F. Izmaylov, J. L. Sonnenberg, D. Williams-Young, 
 F. Ding, F. Lipparini, F. Egidi, J. Goings, B. Peng, A. Petrone, 
 T. Henderson, D. Ranasinghe, V. G. Zakrzewski, J. Gao, N. Rega, 
 G. Zheng, W. Liang, M. Hada, M. Ehara, K. Toyota, R. Fukuda, 
 J. Hasegawa, M. Ishida, T. Nakajima, Y. Honda, O. Kitao, H. Nakai, 
 T. Vreven, K. Throssell, J. A. Montgomery, Jr., J. E. Peralta, 
 F. Ogliaro, M. J. Bearpark, J. J. Heyd, E. N. Brothers, K. N. Kudin, 
 V. N. Staroverov, T. A. Keith, R. Kobayashi, J. Normand, 
 K. Raghavachari, A. P. Rendell, J. C. Burant, S. S. Iyengar, 
 J. Tomasi, M. Cossi, J. M. Millam, M. Klene, C. Adamo, R. Cammi, 
 J. W. Ochterski, R. L. Martin, K. Morokuma, O. Farkas, 
 J. B. Foresman, and D. J. Fox, Gaussian, Inc., Wallingford CT, 2016.
 
 ******************************************
 Gaussian 16:  ES64L-G16RevB.01 20-Dec-2017
                30-Sep-2023 
 ******************************************
 %chk=hoclo2.chk
 %mem=500mw
 %nprocs=4
 Will use up to    4 processors via shared memory.
 ---------------------------------
 # rohf/gen geom=check guess=check
 ---------------------------------
 1/29=2,38=1,172=1/1;
 2/12=2,40=1/2;
 3/5=7,11=2,14=-4,25=1,30=1,116=101/1,2,3;
 4/5=1/1;
 5/5=2,38=6/2;
 6/7=2,8=2,9=2,10=2,28=1/1;
 99/5=1,9=1/99;
 ----------------------------------------
 chloric acid (HO-ClO2), ROHF/cc-pVTZ-F12
 ----------------------------------------
 Structure from the checkpoint file:  "hoclo2.chk"
 Charge =  0 Multiplicity = 1
 Redundant internal coordinates found in file.  (old form).
 Cl,0,-0.168126,0.008965,-0.342312
 O,0,1.475001,-0.318738,0.055052
 O,0,-0.391414,1.321836,0.24975
 O,0,-0.926382,-1.039493,0.309526
 H,0,1.600511,0.138744,0.904688
 Recover connectivity data from disk.
                           ----------------------------
                           !    Current Parameters    !
                           ! (Angstroms and Degrees)  !
 --------------------------                            --------------------------
 ! Name  Definition              Value                                          !
 --------------------------------------------------------------------------------
 ! R1    R(1,2)                  1.722                                          !
 ! R2    R(1,3)                  1.4574                                         !
 ! R3    R(1,4)                  1.4488                                         !
 ! R4    R(2,5)                  0.9731                                         !
 ! A1    A(2,1,3)              102.9373                                         !
 ! A2    A(2,1,4)              104.943                                          !
 ! A3    A(3,1,4)              112.8884                                         !
 ! A4    A(1,2,5)              103.5969                                         !
 ! D1    D(3,1,2,5)             31.1075                                         !
 ! D2    D(4,1,2,5)            -87.209                                          !
 ! D3    D(2,1,3,4)           -112.592                                          !
 --------------------------------------------------------------------------------
                          Input orientation:                          
 ---------------------------------------------------------------------
 Center     Atomic      Atomic             Coordinates (Angstroms)
 Number     Number       Type             X           Y           Z
 ---------------------------------------------------------------------
      1         17           0       -0.168126    0.008965   -0.342312
      2          8           0        1.475001   -0.318738    0.055052
      3          8           0       -0.391414    1.321836    0.249750
      4          8           0       -0.926382   -1.039493    0.309526
      5          1           0        1.600511    0.138744    0.904688
 ---------------------------------------------------------------------
                    Distance matrix (angstroms):
                    1          2          3          4          5
     1  Cl   0.000000
     2  O    1.721962   0.000000
     3  O    1.457404   2.492568   0.000000
     4  O    1.448830   2.520096   2.421908   0.000000
     5  H    2.167932   0.973100   2.407575   2.850903   0.000000
 Stoichiometry    ClHO3
 Framework group  C1[X(ClHO3)]
 Deg. of freedom     9
 Full point group                 C1      NOp   1
 Largest Abelian subgroup         C1      NOp   1
 Largest concise Abelian subgroup C1      NOp   1
                         Standard orientation:                         
 ---------------------------------------------------------------------
 Center     Atomic      Atomic             Coordinates (Angstroms)
 Number     Number       Type             X           Y           Z
 ---------------------------------------------------------------------
      1         17           0       -0.168126    0.008965   -0.342312
      2          8           0        1.475002   -0.318734    0.055052
      3          8           0       -0.391418    1.321835    0.249750
      4          8           0       -0.926380   -1.039495    0.309526
      5          1           0        1.600510    0.138748    0.904688
 ---------------------------------------------------------------------
 Rotational constants (GHZ):           9.3051073           8.1514841           4.9825691
 General basis read from cards:  (5D, 7F)
 There are   277 symmetry adapted cartesian basis functions of A   symmetry.
 There are   239 symmetry adapted basis functions of A   symmetry.
   239 basis functions,   384 primitive gaussians,   277 cartesian basis functions
    21 alpha electrons       21 beta electrons
       nuclear repulsion energy       193.6018436132 Hartrees.
 NAtoms=    5 NActive=    5 NUniq=    5 SFac= 1.00D+00 NAtFMM=   60 NAOKFM=F Big=F
 Integral buffers will be    131072 words long.
 Raffenetti 2 integral format.
 Two-electron integral symmetry is turned on.
 One-electron integrals computed using PRISM.
 NBasis=   239 RedAO= T EigKep=  2.35D-04  NBF=   239
 NBsUse=   239 1.00D-06 EigRej= -1.00D+00 NBFU=   239
 Initial guess from the checkpoint file:  "hoclo2.chk"
 B after Tr=    -0.000000   -0.000000    0.000000
         Rot=    1.000000   -0.000000    0.000000   -0.000000 Ang=   0.00 deg.
 Requested convergence on RMS density matrix=1.00D-08 within 128 cycles.
 Requested convergence on MAX density matrix=1.00D-06.
 Requested convergence on             energy=1.00D-06.
 No special actions if energy rises.
 SCF Done:  E(ROHF) =  -684.513976684     A.U. after   14 cycles
            NFock= 14  Conv=0.57D-08     -V/T= 2.0009
 <Sx>= 0.0000 <Sy>= 0.0000 <Sz>= 0.0000 <S**2>=-0.0000 S=-0.0000
 <L.S>=  0.00000000000    
 Annihilation of the first spin contaminant:
 S**2 before annihilation    -0.0000,   after     0.0000

 **********************************************************************

            Population analysis using the SCF Density.

 **********************************************************************

 Orbital symmetries:
       Occupied  (A) (A) (A) (A) (A) (A) (A) (A) (A) (A) (A) (A)
                 (A) (A) (A) (A) (A) (A) (A) (A) (A)
       Virtual   (A) (A) (A) (A) (A) (A) (A) (A) (A) (A) (A) (A)
                 (A) (A) (A) (A) (A) (A) (A) (A) (A) (A) (A) (A)
                 (A) (A) (A) (A) (A) (A) (A) (A) (A) (A) (A) (A)
                 (A) (A) (A) (A) (A) (A) (A) (A) (A) (A) (A) (A)
                 (A) (A) (A) (A) (A) (A) (A) (A) (A) (A) (A) (A)
                 (A) (A) (A) (A) (A) (A) (A) (A) (A) (A) (A) (A)
                 (A) (A) (A) (A) (A) (A) (A) (A) (A) (A) (A) (A)
                 (A) (A) (A) (A) (A) (A) (A) (A) (A) (A) (A) (A)
                 (A) (A) (A) (A) (A) (A) (A) (A) (A) (A) (A) (A)
                 (A) (A) (A) (A) (A) (A) (A) (A) (A) (A) (A) (A)
                 (A) (A) (A) (A) (A) (A) (A) (A) (A) (A) (A) (A)
                 (A) (A) (A) (A) (A) (A) (A) (A) (A) (A) (A) (A)
                 (A) (A) (A) (A) (A) (A) (A) (A) (A) (A) (A) (A)
                 (A) (A) (A) (A) (A) (A) (A) (A) (A) (A) (A) (A)
                 (A) (A) (A) (A) (A) (A) (A) (A) (A) (A) (A) (A)
                 (A) (A) (A) (A) (A) (A) (A) (A) (A) (A) (A) (A)
                 (A) (A) (A) (A) (A) (A) (A) (A) (A) (A) (A) (A)
                 (A) (A) (A) (A) (A) (A) (A) (A) (A) (A) (A) (A)
                 (A) (A)
 The electronic state is 1-A.
 Alpha  occ. eigenvalues -- -105.17468 -20.66276 -20.62193 -20.62135 -10.86180
 Alpha  occ. eigenvalues --   -8.33016  -8.32939  -8.32745  -1.60518  -1.41712
 Alpha  occ. eigenvalues --   -1.40781  -1.01813  -0.79451  -0.77523  -0.73807
 Alpha  occ. eigenvalues --   -0.68859  -0.60798  -0.55361  -0.54579  -0.51814
 Alpha  occ. eigenvalues --   -0.48160
 Alpha virt. eigenvalues --    0.05247   0.06864   0.07396   0.08202   0.09776
 Alpha virt. eigenvalues --    0.13524   0.14676   0.14925   0.15921   0.16638
 Alpha virt. eigenvalues --    0.19257   0.20570   0.21152   0.21984   0.22416
 Alpha virt. eigenvalues --    0.23036   0.25103   0.29857   0.32408   0.34753
 Alpha virt. eigenvalues --    0.42602   0.44703   0.45901   0.48147   0.51917
 Alpha virt. eigenvalues --    0.53452   0.56480   0.58235   0.62324   0.63799
 Alpha virt. eigenvalues --    0.67108   0.67475   0.69942   0.71895   0.72371
 Alpha virt. eigenvalues --    0.77557   0.78179   0.80310   0.82586   0.86534
 Alpha virt. eigenvalues --    0.89895   0.95417   1.03172   1.07208   1.09308
 Alpha virt. eigenvalues --    1.13793   1.15598   1.17838   1.21576   1.25766
 Alpha virt. eigenvalues --    1.32161   1.35810   1.38096   1.39026   1.40988
 Alpha virt. eigenvalues --    1.41719   1.43105   1.44680   1.50129   1.51169
 Alpha virt. eigenvalues --    1.54342   1.54794   1.61608   1.63972   1.67881
 Alpha virt. eigenvalues --    1.69089   1.76625   1.77905   1.80529   1.81783
 Alpha virt. eigenvalues --    1.82944   1.88005   1.90223   1.91892   1.92247
 Alpha virt. eigenvalues --    1.93341   1.98095   2.05253   2.09342   2.13593
 Alpha virt. eigenvalues --    2.18290   2.20510   2.29943   2.32834   2.33942
 Alpha virt. eigenvalues --    2.36133   2.37026   2.41451   2.44599   2.45853
 Alpha virt. eigenvalues --    2.51888   2.53539   2.55017   2.57981   2.62172
 Alpha virt. eigenvalues --    2.62989   2.64489   2.71428   2.73042   2.87300
 Alpha virt. eigenvalues --    2.90551   2.93128   3.01145   3.10482   3.12178
 Alpha virt. eigenvalues --    3.17892   3.23437   3.33122   3.37895   3.40092
 Alpha virt. eigenvalues --    3.42870   3.47559   3.53389   3.56749   3.66414
 Alpha virt. eigenvalues --    3.68281   3.73191   3.79038   3.81157   3.83054
 Alpha virt. eigenvalues --    3.86261   3.90362   3.91284   3.92651   3.95276
 Alpha virt. eigenvalues --    4.01670   4.03126   4.12281   4.14277   4.19371
 Alpha virt. eigenvalues --    4.24097   4.29381   4.30007   4.31831   4.33520
 Alpha virt. eigenvalues --    4.39275   4.53774   4.71401   4.84004   5.13775
 Alpha virt. eigenvalues --    5.17137   5.23747   5.31243   5.33324   5.56569
 Alpha virt. eigenvalues --    5.76195   5.81581   6.03490   6.46673   6.64657
 Alpha virt. eigenvalues --    6.71415   6.82744   6.85231   6.87032   6.89138
 Alpha virt. eigenvalues --    6.90261   6.92643   6.96030   6.98365   6.99352
 Alpha virt. eigenvalues --    7.01532   7.03194   7.06480   7.08287   7.09562
 Alpha virt. eigenvalues --    7.15721   7.18757   7.28793   7.42274   7.78755
 Alpha virt. eigenvalues --    7.88560   8.13283   8.86146   9.70155   9.70999
 Alpha virt. eigenvalues --    9.81216   9.97420  10.01533  10.24784  10.43702
 Alpha virt. eigenvalues --   10.47375  10.60310  11.12166  11.14470  11.16392
 Alpha virt. eigenvalues --   11.20273  11.21921  11.35734  11.37747  11.40088
 Alpha virt. eigenvalues --   11.46138  11.48200  11.50150  11.57162  11.93054
 Alpha virt. eigenvalues --   12.02828  12.07685  22.09404  22.15154  22.15766
 Alpha virt. eigenvalues --   22.48126  22.49058  24.50733  28.39099  28.72030
 Alpha virt. eigenvalues --   29.08394  37.34831  37.36711  37.44397  37.55645
 Alpha virt. eigenvalues --   37.60234  37.74321  37.91929  37.93618  38.05875
 Alpha virt. eigenvalues --   42.02646  42.12599  42.40525
          Condensed to atoms (all electrons):
               1          2          3          4          5
     1  Cl  14.798808   0.087153   0.342997   0.380858   0.026478
     2  O    0.087153   8.302111  -0.027078  -0.028798   0.210809
     3  O    0.342997  -0.027078   8.320123  -0.024217   0.000813
     4  O    0.380858  -0.028798  -0.024217   8.272185   0.002598
     5  H    0.026478   0.210809   0.000813   0.002598   0.363547
          Atomic-Atomic Spin Densities.
               1          2          3          4          5
     1  Cl   0.000000   0.000000   0.000000   0.000000   0.000000
     2  O    0.000000   0.000000   0.000000   0.000000   0.000000
     3  O    0.000000   0.000000   0.000000   0.000000   0.000000
     4  O    0.000000   0.000000   0.000000   0.000000   0.000000
     5  H    0.000000   0.000000   0.000000   0.000000   0.000000
 Mulliken charges and spin densities:
               1          2
     1  Cl   1.363706   0.000000
     2  O   -0.544197   0.000000
     3  O   -0.612637   0.000000
     4  O   -0.602625   0.000000
     5  H    0.395754   0.000000
 Sum of Mulliken charges =  -0.00000   0.00000
 Mulliken charges and spin densities with hydrogens summed into heavy atoms:
               1          2
     1  Cl   1.363706   0.000000
     2  O   -0.148443   0.000000
     3  O   -0.612637   0.000000
     4  O   -0.602625   0.000000
 Electronic spatial extent (au):  <R**2>=            266.5377
 Charge=             -0.0000 electrons
 Dipole moment (field-independent basis, Debye):
    X=              1.5389    Y=              0.3166    Z=             -0.5798  Tot=              1.6747
 Quadrupole moment (field-independent basis, Debye-Ang):
   XX=            -29.2340   YY=            -33.5487   ZZ=            -26.2876
   XY=              0.5974   XZ=              3.8592   YZ=              0.4278
 Traceless Quadrupole moment (field-independent basis, Debye-Ang):
   XX=              0.4561   YY=             -3.8586   ZZ=              3.4025
   XY=              0.5974   XZ=              3.8592   YZ=              0.4278
 Octapole moment (field-independent basis, Debye-Ang**2):
  XXX=              2.4410  YYY=             -2.0150  ZZZ=              1.0501  XYY=              2.4446
  XXY=              3.4556  XXZ=              3.8900  XZZ=              3.3356  YZZ=              0.3224
  YYZ=             -1.4927  XYZ=              0.6716
 Hexadecapole moment (field-independent basis, Debye-Ang**3):
 XXXX=           -137.1950 YYYY=           -128.8739 ZZZZ=            -38.4740 XXXY=              2.4608
 XXXZ=             11.0627 YYYX=              0.4376 YYYZ=              0.4572 ZZZX=              4.7144
 ZZZY=              0.4238 XXYY=            -46.2734 XXZZ=            -24.6921 YYZZ=            -26.9164
 XXYZ=              1.0743 YYXZ=              0.3591 ZZXY=              0.5718
 N-N= 1.936018436132D+02 E-N=-2.011984635021D+03  KE= 6.839155461154D+02
                          Isotropic Fermi Contact Couplings
        Atom                 a.u.       MegaHertz       Gauss      10(-4) cm-1
     1  Cl(35)             0.00000       0.00000       0.00000       0.00000
     2  O(17)              0.00000      -0.00000      -0.00000      -0.00000
     3  O(17)              0.00000      -0.00000      -0.00000      -0.00000
     4  O(17)              0.00000      -0.00000      -0.00000      -0.00000
     5  H(1)               0.00000       0.00000       0.00000       0.00000
 --------------------------------------------------------
       Center         ----  Spin Dipole Couplings  ----
                      3XX-RR        3YY-RR        3ZZ-RR
 --------------------------------------------------------
     1   Atom        0.000000      0.000000      0.000000
     2   Atom        0.000000      0.000000      0.000000
     3   Atom        0.000000      0.000000      0.000000
     4   Atom        0.000000      0.000000      0.000000
     5   Atom        0.000000      0.000000      0.000000
 --------------------------------------------------------
                        XY            XZ            YZ
 --------------------------------------------------------
     1   Atom        0.000000      0.000000      0.000000
     2   Atom        0.000000      0.000000      0.000000
     3   Atom        0.000000      0.000000      0.000000
     4   Atom        0.000000      0.000000      0.000000
     5   Atom        0.000000      0.000000      0.000000
 --------------------------------------------------------


 ---------------------------------------------------------------------------------
              Anisotropic Spin Dipole Couplings in Principal Axis System
 ---------------------------------------------------------------------------------

       Atom             a.u.   MegaHertz   Gauss  10(-4) cm-1        Axes

              Baa     0.0000     0.000     0.000     0.000  1.0000  0.0000  0.0000
     1 Cl(35) Bbb     0.0000     0.000     0.000     0.000 -0.0000  1.0000  0.0000
              Bcc     0.0000     0.000     0.000     0.000  0.0000  0.0000  1.0000
 
              Baa     0.0000    -0.000    -0.000    -0.000  1.0000  0.0000  0.0000
     2 O(17)  Bbb     0.0000    -0.000    -0.000    -0.000 -0.0000  1.0000  0.0000
              Bcc     0.0000    -0.000    -0.000    -0.000  0.0000  0.0000  1.0000
 
              Baa     0.0000    -0.000    -0.000    -0.000  1.0000  0.0000  0.0000
     3 O(17)  Bbb     0.0000    -0.000    -0.000    -0.000 -0.0000  1.0000  0.0000
              Bcc     0.0000    -0.000    -0.000    -0.000  0.0000  0.0000  1.0000
 
              Baa     0.0000    -0.000    -0.000    -0.000  1.0000  0.0000  0.0000
     4 O(17)  Bbb     0.0000    -0.000    -0.000    -0.000 -0.0000  1.0000  0.0000
              Bcc     0.0000    -0.000    -0.000    -0.000  0.0000  0.0000  1.0000
 
              Baa     0.0000     0.000     0.000     0.000  1.0000  0.0000  0.0000
     5 H(1)   Bbb     0.0000     0.000     0.000     0.000 -0.0000  1.0000  0.0000
              Bcc     0.0000     0.000     0.000     0.000  0.0000  0.0000  1.0000
 

 ---------------------------------------------------------------------------------

 1\1\GINC-GAMBA\SP\ROHF\Gen\Cl1H1O3\IRIKURA\30-Sep-2023\0\\# rohf/gen g
 eom=check guess=check\\chloric acid (HO-ClO2), ROHF/cc-pVTZ-F12\\0,1\C
 l,0,-0.168126,0.008965,-0.342312\O,0,1.475001,-0.318738,0.055052\O,0,-
 0.391414,1.321836,0.24975\O,0,-0.926382,-1.039493,0.309526\H,0,1.60051
 1,0.138744,0.904688\\Version=ES64L-G16RevB.01\State=1-A\HF=-684.513976
 7\RMSD=5.721e-09\Dipole=0.6054424,0.1245461,-0.2281165\Quadrupole=0.33
 91274,-2.868783,2.5296556,0.4441504,2.8692214,0.3180606\PG=C01 [X(Cl1H
 1O3)]\\@


 IN SO FAR AS QUANTUM MECHANICS IS CORRECT, CHEMICAL 
 QUESTIONS ARE PROBLEMS IN APPLIED MATHEMATICS.

                    -- EYRING, WALTER, & KIMBALL, 1944
 Job cpu time:       0 days  0 hours  3 minutes 55.5 seconds.
 Elapsed time:       0 days  0 hours  0 minutes 58.9 seconds.
 File lengths (MBytes):  RWF=     44 Int=      0 D2E=      0 Chk=      6 Scr=      1
 Normal termination of Gaussian 16 at Sat Sep 30 23:48:47 2023.
