 Entering Gaussian System, Link 0=g16
 AtFile(1): pcseg2.gbs
            -H     0
            S   4   1.00
                  0.754732D+02           0.427821D-02
                  0.113575D+02           0.328672D-01
                  0.260081D+01           0.159578D+00
                  0.735503D+00           0.500000D+00
            S   1   1.00
                  0.231761D+00           1.0000000
            S   1   1.00
                  0.741675D-01           1.0000000
            P   1   1.00
                  0.160000D+01           1.0000000
            P   1   1.00
                  0.450000D+00           1.0000000
            D   1   1.00
                  0.125000D+01           1.0000000
            ****
            -C     0
            S   7   1.00
                  0.731999D+04           0.695369D-03
                  0.109818D+04           0.537138D-02
                  0.250014D+03           0.274734D-01
                  0.707586D+02           0.105078D+00
                  0.228595D+02           0.291262D+00
                  0.803936D+01           0.500000D+00
                  0.289309D+01           0.362224D+00
            S   2   1.00
                  0.521640D+01          -0.957844D-01
                  0.556124D+00           0.500000D+00
            S   1   1.00
                  0.228813D+00           1.0000000
            S   1   1.00
                  0.936338D-01           1.0000000
            P   4   1.00
                  0.339855D+02           0.818395D-02
                  0.772957D+01           0.586921D-01
                  0.224954D+01           0.222514D+00
                  0.767681D+00           0.500000D+00
            P   1   1.00
                  0.263283D+00           1.0000000
            P   1   1.00
                  0.848744D-01           1.0000000
            D   1   1.00
                  0.140000D+01           1.0000000
            D   1   1.00
                  0.450000D+00           1.0000000
            F   1   1.00
                  0.950000D+00           1.0000000
            ****
            -O     0
            S   7   1.00
                  0.135887D+05           0.665492D-03
                  0.203847D+04           0.514222D-02
                  0.464041D+03           0.263472D-01
                  0.131339D+03           0.101500D+00
                  0.425340D+02           0.285877D+00
                  0.150429D+02           0.500000D+00
                  0.546616D+01           0.368211D+00
            S   2   1.00
                  0.100915D+02          -0.100084D+00
                  0.110429D+01           0.500000D+00
            S   1   1.00
                  0.448082D+00           1.0000000
            S   1   1.00
                  0.175325D+00           1.0000000
            P   4   1.00
                  0.608220D+02           0.908253D-02
                  0.140332D+02           0.645878D-01
                  0.418244D+01           0.241502D+00
                  0.142490D+01           0.500000D+00
            P   1   1.00
                  0.478741D+00           1.0000000
            P   1   1.00
                  0.146257D+00           1.0000000
            D   1   1.00
                  0.220000D+01           1.0000000
            D   1   1.00
                  0.650000D+00           1.0000000
            F   1   1.00
                  0.110000D+01           1.0000000
            ****
            -N     0
            S   7   1.00
                  0.101643D+05           0.682757D-03
                  0.152481D+04           0.527488D-02
                  0.347119D+03           0.270037D-01
                  0.982389D+02           0.103673D+00
                  0.317799D+02           0.289575D+00
                  0.112240D+02           0.500000D+00
                  0.406611D+01           0.364621D+00
            S   2   1.00
                  0.747898D+01          -0.975681D-01
                  0.805040D+00           0.500000D+00
            S   1   1.00
                  0.324626D+00           1.0000000
            S   1   1.00
                  0.128132D+00           1.0000000
            P   4   1.00
                  0.482704D+02           0.829547D-02
                  0.110815D+02           0.596223D-01
                  0.326643D+01           0.227889D+00
                  0.111680D+01           0.500000D+00
            P   1   1.00
                  0.382049D+00           1.0000000
            P   1   1.00
                  0.121222D+00           1.0000000
            D   1   1.00
                  0.180000D+01           1.0000000
            D   1   1.00
                  0.550000D+00           1.0000000
            F   1   1.00
                  0.102000D+01           1.0000000
            ****
            -F     0
            S   7   1.00
                  0.174507D+05           0.655972D-03
                  0.261768D+04           0.506944D-02
                  0.595857D+03           0.259899D-01
                  0.168651D+03           0.100353D+00
                  0.546654D+02           0.284095D+00
                  0.193717D+02           0.500000D+00
                  0.706202D+01           0.370721D+00
            S   2   1.00
                  0.131197D+02          -0.101997D+00
                  0.145046D+01           0.500000D+00
            S   1   1.00
                  0.588255D+00           1.0000000
            S   1   1.00
                  0.227960D+00           1.0000000
            P   4   1.00
                  0.779407D+02           0.931135D-02
                  0.180425D+02           0.663964D-01
                  0.542342D+01           0.246386D+00
                  0.184876D+01           0.500000D+00
            P   1   1.00
                  0.617455D+00           1.0000000
            P   1   1.00
                  0.185496D+00           1.0000000
            D   1   1.00
                  0.280000D+01           1.0000000
            D   1   1.00
                  0.800000D+00           1.0000000
            F   1   1.00
                  0.120000D+01           1.0000000
            ****
            -Cl     0
            S   8   1.00
                  0.154272D+06           0.222473D-03
                  0.231232D+05           0.172590D-02
                  0.526257D+04           0.899286D-02
                  0.148995D+04           0.367724D-01
                  0.485417D+03           0.121446D+00
                  0.174634D+03           0.304148D+00
                  0.672393D+02           0.500000D+00
                  0.265780D+02           0.360252D+00
            S   3   1.00
                  0.131826D+03          -0.531330D-01
                  0.400703D+02          -0.233346D+00
                  0.789448D+01           0.500000D+00
            S   2   1.00
                  0.427711D+01           0.500000D+00
                  0.196233D+01           0.370517D+00
            S   1   1.00
                  0.520793D+00           1.0000000
            S   1   1.00
                  0.181633D+00           1.0000000
            P   7   1.00
                  0.124440D+04           0.988206D-03
                  0.295109D+03           0.829674D-02
                  0.947224D+02           0.430906D-01
                  0.352588D+02           0.148443D+00
                  0.144211D+02           0.344744D+00
                  0.610371D+01           0.500000D+00
                  0.258886D+01           0.348278D+00
            P   2   1.00
                  0.109447D+02          -0.196768D-01
                  0.104413D+01           0.500000D+00
            P   1   1.00
                  0.376184D+00           1.0000000
            P   1   1.00
                  0.120613D+00           1.0000000
            D   1   1.00
                  0.231000D+01           1.0000000
            D   1   1.00
                  0.520000D+00           1.0000000
            F   1   1.00
                  0.720000D+00           1.0000000
            ****
            -S     0
            S   8   1.00
                  0.134700D+06           0.226231D-03
                  0.201904D+05           0.175488D-02
                  0.459528D+04           0.914190D-02
                  0.130109D+04           0.373551D-01
                  0.423902D+03           0.123121D+00
                  0.152485D+03           0.306801D+00
                  0.586925D+02           0.500000D+00
                  0.231461D+02           0.354358D+00
            S   3   1.00
                  0.116327D+03          -0.491772D-01
                  0.352841D+02          -0.215962D+00
                  0.677831D+01           0.500000D+00
            S   2   1.00
                  0.360404D+01           0.500000D+00
                  0.164871D+01           0.366278D+00
            S   1   1.00
                  0.421821D+00           1.0000000
            S   1   1.00
                  0.147554D+00           1.0000000
            P   7   1.00
                  0.104863D+04           0.105273D-02
                  0.248717D+03           0.879338D-02
                  0.797887D+02           0.453358D-01
                  0.296023D+02           0.154476D+00
                  0.120627D+02           0.352366D+00
                  0.507628D+01           0.500000D+00
                  0.213375D+01           0.346429D+00
            P   2   1.00
                  0.928958D+01          -0.185932D-01
                  0.837819D+00           0.500000D+00
            P   1   1.00
                  0.301495D+00           1.0000000
            P   1   1.00
                  0.974740D-01           1.0000000
            D   1   1.00
                  0.210000D+01           1.0000000
            D   1   1.00
                  0.480000D+00           1.0000000
            F   1   1.00
                  0.660000D+00           1.0000000
            ****
            -Br     0
            S    10   1.00
                  0.233625D+07           0.532336D-04
                  0.349961D+06           0.413715D-03
                  0.796444D+05           0.217123D-02
                  0.225555D+05           0.910109D-02
                  0.735546D+04           0.323789D-01
                  0.265352D+04           0.988755D-01
                  0.103517D+04           0.248138D+00
                  0.422205D+03           0.474328D+00
                  0.180035D+03           0.500000D+00
                  0.793308D+02           0.187769D+00
            S    4   1.00
                  0.620834D+03          -0.226511D-01
                  0.190829D+03          -0.109497D+00
                  0.312505D+02           0.500000D+00
                  0.135270D+02           0.492812D+00
            S    2   1.00
                  0.216097D+02          -0.165418D+00
                  0.372566D+01           0.500000D+00
            S    1   1.00
                  0.169770D+01           1.0000000
            S    1   1.00
                  0.489332D+00           1.0000000
            S    1   1.00
                  0.175712D+00           1.0000000
            P    8   1.00
                  0.960829D+04           0.478974D-03
                  0.227618D+04           0.417853D-02
                  0.736723D+03           0.229315D-01
                  0.281579D+03           0.892653D-01
                  0.118395D+03           0.255288D+00
                  0.527481D+02           0.479074D+00
                  0.245098D+02           0.500000D+00
                  0.112009D+02           0.200944D+00
            P    4   1.00
                  0.587849D+02          -0.189674D-01
                  0.918962D+01           0.264104D+00
                  0.413895D+01           0.500000D+00
                  0.184225D+01           0.319316D+00
            P    1   1.00
                  0.713862D+00           1.0000000
            P    1   1.00
                  0.274232D+00           1.0000000
            P    1   1.00
                  0.944411D-01           1.0000000
            D    7   1.00
                  0.398470D+03           0.204066D-02
                  0.118967D+03           0.175171D-01
                  0.450197D+02           0.829708D-01
                  0.190320D+02           0.236284D+00
                  0.855686D+01           0.428468D+00
                  0.382950D+01           0.500000D+00
                  0.166291D+01           0.349360D+00
            D    1   1.00
                  0.672953D+00           1.0000000
            D    1   1.00
                  0.252000D+00           1.0000000
            F    1   1.00
                  0.530000D+00           1.0000000
            ****
            -Si     0
            S    8   1.00
                  0.996133D+05           0.235546D-03
                  0.149311D+05           0.182707D-02
                  0.339820D+04           0.951425D-02
                  0.962140D+03           0.388172D-01
                  0.313430D+03           0.127328D+00
                  0.112683D+03           0.313522D+00
                  0.433372D+02           0.500000D+00
                  0.170029D+02           0.340347D+00
            S    3   1.00
                  0.884208D+02          -0.404451D-01
                  0.266756D+02          -0.178059D+00
                  0.479640D+01           0.500000D+00
            S    2   1.00
                  0.239385D+01           0.500000D+00
                  0.108333D+01           0.338016D+00
            S    1   1.00
                  0.252420D+00           1.0000000
            S    1   1.00
                  0.891210D-01           1.0000000
            P    7   1.00
                  0.709901D+03           0.123028D-02
                  0.168426D+03           0.101366D-01
                  0.539946D+02           0.511840D-01
                  0.198646D+02           0.169967D+00
                  0.801369D+01           0.370717D+00
                  0.331870D+01           0.500000D+00
                  0.136112D+01           0.344128D+00
            P    2   1.00
                  0.622158D+01          -0.166609D-01
                  0.503049D+00           0.500000D+00
            P    1   1.00
                  0.179848D+00           1.0000000
            P    1   1.00
                  0.591912D-01           1.0000000
            D    1   1.00
                  0.168000D+01           1.0000000
            D    1   1.00
                  0.380000D+00           1.0000000
            F    1   1.00
                  0.540000D+00           1.0000000
            ****
            -P     0
            S    8   1.00
                  0.116416D+06           0.230715D-03
                  0.174500D+05           0.178960D-02
                  0.397149D+04           0.932116D-02
                  0.112447D+04           0.380591D-01
                  0.366347D+03           0.125148D+00
                  0.131757D+03           0.310022D+00
                  0.506988D+02           0.500000D+00
                  0.199436D+02           0.347528D+00
            S    3   1.00
                  0.101878D+03          -0.446755D-01
                  0.308249D+02          -0.196376D+00
                  0.573688D+01           0.500000D+00
            S    2   1.00
                  0.296868D+01           0.500000D+00
                  0.135315D+01           0.355098D+00
            S    1   1.00
                  0.332196D+00           1.0000000
            S    1   1.00
                  0.116229D+00           1.0000000
            P    7   1.00
                  0.873928D+03           0.112375D-02
                  0.207298D+03           0.933330D-02
                  0.664628D+02           0.477213D-01
                  0.245665D+02           0.160733D+00
                  0.996820D+01           0.359760D+00
                  0.416536D+01           0.500000D+00
                  0.173022D+01           0.346593D+00
            P    2   1.00
                  0.772530D+01          -0.175718D-01
                  0.657252D+00           0.500000D+00
            P    1   1.00
                  0.239903D+00           1.0000000
            P    1   1.00
                  0.800988D-01           1.0000000
            D    1   1.00
                  0.189000D+01           1.0000000
            D    1   1.00
                  0.430000D+00           1.0000000
            F    1   1.00
                  0.600000D+00           1.0000000
            ****
            
 Initial command:
 /usr/local/apps/g16_b01_avx/g16/l1.exe "/wrk/irikura/Gau-423415.inp" -scrdir="/wrk/irikura/"
 Entering Link 1 = /usr/local/apps/g16_b01_avx/g16/l1.exe PID=    423417.
  
 Copyright (c) 1988-2017, Gaussian, Inc.  All Rights Reserved.
  
 This is part of the Gaussian(R) 16 program.  It is based on
 the Gaussian(R) 09 system (copyright 2009, Gaussian, Inc.),
 the Gaussian(R) 03 system (copyright 2003, Gaussian, Inc.),
 the Gaussian(R) 98 system (copyright 1998, Gaussian, Inc.),
 the Gaussian(R) 94 system (copyright 1995, Gaussian, Inc.),
 the Gaussian 92(TM) system (copyright 1992, Gaussian, Inc.),
 the Gaussian 90(TM) system (copyright 1990, Gaussian, Inc.),
 the Gaussian 88(TM) system (copyright 1988, Gaussian, Inc.),
 the Gaussian 86(TM) system (copyright 1986, Carnegie Mellon
 University), and the Gaussian 82(TM) system (copyright 1983,
 Carnegie Mellon University). Gaussian is a federally registered
 trademark of Gaussian, Inc.
  
 This software contains proprietary and confidential information,
 including trade secrets, belonging to Gaussian, Inc.
  
 This software is provided under written license and may be
 used, copied, transmitted, or stored only in accord with that
 written license.
  
 The following legend is applicable only to US Government
 contracts under FAR:
  
                    RESTRICTED RIGHTS LEGEND
  
 Use, reproduction and disclosure by the US Government is
 subject to restrictions as set forth in subparagraphs (a)
 and (c) of the Commercial Computer Software - Restricted
 Rights clause in FAR 52.227-19.
  
 Gaussian, Inc.
 340 Quinnipiac St., Bldg. 40, Wallingford CT 06492
  
  
 ---------------------------------------------------------------
 Warning -- This program may not be used in any manner that
 competes with the business of Gaussian, Inc. or will provide
 assistance to any competitor of Gaussian, Inc.  The licensee
 of this program is prohibited from giving any competitor of
 Gaussian, Inc. access to this program.  By using this program,
 the user acknowledges that Gaussian, Inc. is engaged in the
 business of creating and licensing software in the field of
 computational chemistry and represents and warrants to the
 licensee that it is not a competitor of Gaussian, Inc. and that
 it will not use this program in any manner prohibited above.
 ---------------------------------------------------------------
  

 Cite this work as:
 Gaussian 16, Revision B.01,
 M. J. Frisch, G. W. Trucks, H. B. Schlegel, G. E. Scuseria, 
 M. A. Robb, J. R. Cheeseman, G. Scalmani, V. Barone, 
 G. A. Petersson, H. Nakatsuji, X. Li, M. Caricato, A. V. Marenich, 
 J. Bloino, B. G. Janesko, R. Gomperts, B. Mennucci, H. P. Hratchian, 
 J. V. Ortiz, A. F. Izmaylov, J. L. Sonnenberg, D. Williams-Young, 
 F. Ding, F. Lipparini, F. Egidi, J. Goings, B. Peng, A. Petrone, 
 T. Henderson, D. Ranasinghe, V. G. Zakrzewski, J. Gao, N. Rega, 
 G. Zheng, W. Liang, M. Hada, M. Ehara, K. Toyota, R. Fukuda, 
 J. Hasegawa, M. Ishida, T. Nakajima, Y. Honda, O. Kitao, H. Nakai, 
 T. Vreven, K. Throssell, J. A. Montgomery, Jr., J. E. Peralta, 
 F. Ogliaro, M. J. Bearpark, J. J. Heyd, E. N. Brothers, K. N. Kudin, 
 V. N. Staroverov, T. A. Keith, R. Kobayashi, J. Normand, 
 K. Raghavachari, A. P. Rendell, J. C. Burant, S. S. Iyengar, 
 J. Tomasi, M. Cossi, J. M. Millam, M. Klene, C. Adamo, R. Cammi, 
 J. W. Ochterski, R. L. Martin, K. Morokuma, O. Farkas, 
 J. B. Foresman, and D. J. Fox, Gaussian, Inc., Wallingford CT, 2016.
 
 ******************************************
 Gaussian 16:  ES64L-G16RevB.01 20-Dec-2017
                29-Sep-2023 
 ******************************************
 %chk=hof.chk
 %mem=500mw
 %nprocs=4
 Will use up to    4 processors via shared memory.
 ---------------------------------------
 # b3lyp/gen opt freq CPHF(Grid=OneStep)
 ---------------------------------------
 1/18=20,19=15,26=3,38=1/1,3;
 2/9=110,12=2,17=6,18=5,40=1/2;
 3/5=7,11=2,25=1,30=1,71=1,74=-5/1,2,3;
 4//1;
 5/5=2,38=5/2;
 6/7=2,8=2,9=2,10=2,28=1/1;
 7//1,2,3,16;
 1/18=20,19=15,26=3/3(2);
 2/9=110/2;
 99//99;
 2/9=110/2;
 3/5=7,6=1,11=2,25=1,30=1,71=1,74=-5,82=7/1,2,3;
 4/5=5,16=3,69=1/1;
 5/5=2,38=5/2;
 7//1,2,3,16;
 1/18=20,19=15,26=3/3(-5);
 2/9=110/2;
 6/7=2,8=2,9=2,10=2,19=2,28=1/1;
 99/9=1/99;
 ------------------
 HOF, B3LYP/pcseg-2
 ------------------
 Symbolic Z-matrix:
 Charge =  0 Multiplicity = 1
 O                     0.05328   0.70713   0. 
 F                     0.05328  -0.72317   0. 
 H                    -0.90567   0.85145   0. 
 

 GradGradGradGradGradGradGradGradGradGradGradGradGradGradGradGradGradGrad
 Berny optimization.
 Initialization pass.
                           ----------------------------
                           !    Initial Parameters    !
                           ! (Angstroms and Degrees)  !
 --------------------------                            --------------------------
 ! Name  Definition              Value          Derivative Info.                !
 --------------------------------------------------------------------------------
 ! R1    R(1,2)                  1.4303         estimate D2E/DX2                !
 ! R2    R(1,3)                  0.9697         estimate D2E/DX2                !
 ! A1    A(2,1,3)               98.5586         estimate D2E/DX2                !
 --------------------------------------------------------------------------------
 Trust Radius=3.00D-01 FncErr=1.00D-07 GrdErr=1.00D-06 EigMax=2.50D+02 EigMin=1.00D-04
 Number of steps in this run=     20 maximum allowed number of steps=    100.
 GradGradGradGradGradGradGradGradGradGradGradGradGradGradGradGradGradGrad

                          Input orientation:                          
 ---------------------------------------------------------------------
 Center     Atomic      Atomic             Coordinates (Angstroms)
 Number     Number       Type             X           Y           Z
 ---------------------------------------------------------------------
      1          8           0        0.053275    0.707131    0.000000
      2          9           0        0.053275   -0.723166    0.000000
      3          1           0       -0.905671    0.851450    0.000000
 ---------------------------------------------------------------------
                    Distance matrix (angstroms):
                    1          2          3
     1  O    0.000000
     2  F    1.430297   0.000000
     3  H    0.969745   1.843636   0.000000
 Stoichiometry    FHO
 Framework group  CS[SG(FHO)]
 Deg. of freedom     3
 Full point group                 CS      NOp   2
 Largest Abelian subgroup         CS      NOp   2
 Largest concise Abelian subgroup C1      NOp   1
                         Standard orientation:                         
 ---------------------------------------------------------------------
 Center     Atomic      Atomic             Coordinates (Angstroms)
 Number     Number       Type             X           Y           Z
 ---------------------------------------------------------------------
      1          8           0        0.053275    0.707131    0.000000
      2          9           0        0.053275   -0.723166    0.000000
      3          1           0       -0.905671    0.851450    0.000000
 ---------------------------------------------------------------------
 Rotational constants (GHZ):         588.5803464          27.1156488          25.9214582
 General basis read from cards:  (5D, 7F)
 There are    59 symmetry adapted cartesian basis functions of A'  symmetry.
 There are    26 symmetry adapted cartesian basis functions of A"  symmetry.
 There are    50 symmetry adapted basis functions of A'  symmetry.
 There are    24 symmetry adapted basis functions of A"  symmetry.
    74 basis functions,   120 primitive gaussians,    85 cartesian basis functions
     9 alpha electrons        9 beta electrons
       nuclear repulsion energy        33.5871129475 Hartrees.
 NAtoms=    3 NActive=    3 NUniq=    3 SFac= 1.00D+00 NAtFMM=   60 NAOKFM=F Big=F
 Integral buffers will be    131072 words long.
 Raffenetti 2 integral format.
 Two-electron integral symmetry is turned on.
 One-electron integrals computed using PRISM.
 NBasis=    74 RedAO= T EigKep=  5.18D-03  NBF=    50    24
 NBsUse=    74 1.00D-06 EigRej= -1.00D+00 NBFU=    50    24
 ExpMin= 7.42D-02 ExpMax= 1.75D+04 ExpMxC= 5.96D+02 IAcc=3 IRadAn=         5 AccDes= 0.00D+00
 Harris functional with IExCor=  402 and IRadAn=       5 diagonalized for initial guess.
 HarFok:  IExCor=  402 AccDes= 0.00D+00 IRadAn=         5 IDoV= 1 UseB2=F ITyADJ=14
 ICtDFT=  3500011 ScaDFX=  1.000000  1.000000  1.000000  1.000000
 FoFCou: FMM=F IPFlag=           0 FMFlag=      100000 FMFlg1=           0
         NFxFlg=           0 DoJE=T BraDBF=F KetDBF=T FulRan=T
         wScrn=  0.000000 ICntrl=       500 IOpCl=  0 I1Cent=   200000004 NGrid=           0
         NMat0=    1 NMatS0=      1 NMatT0=    0 NMatD0=    1 NMtDS0=    0 NMtDT0=    0
 Petite list used in FoFCou.
 Initial guess orbital symmetries:
       Occupied  (A') (A') (A') (A') (A') (A') (A") (A') (A")
       Virtual   (A') (A') (A') (A') (A') (A") (A') (A') (A") (A')
                 (A") (A') (A') (A') (A") (A') (A') (A") (A') (A')
                 (A") (A') (A") (A') (A') (A") (A') (A') (A") (A')
                 (A") (A') (A') (A") (A') (A') (A") (A') (A') (A")
                 (A') (A") (A') (A') (A') (A") (A') (A") (A') (A")
                 (A') (A') (A") (A") (A") (A') (A') (A') (A') (A")
                 (A') (A') (A") (A') (A')
 The electronic state of the initial guess is 1-A'.
 Keep R1 ints in memory in symmetry-blocked form, NReq=7498490.
 Requested convergence on RMS density matrix=1.00D-08 within 128 cycles.
 Requested convergence on MAX density matrix=1.00D-06.
 Requested convergence on             energy=1.00D-06.
 No special actions if energy rises.
 Integral accuracy reduced to 1.0D-05 until final iterations.
 Initial convergence to 1.0D-05 achieved.  Increase integral accuracy.
 SCF Done:  E(RB3LYP) =  -175.617242168     A.U. after   12 cycles
            NFock= 12  Conv=0.11D-08     -V/T= 2.0026

 **********************************************************************

            Population analysis using the SCF Density.

 **********************************************************************

 Orbital symmetries:
       Occupied  (A') (A') (A') (A') (A') (A') (A") (A') (A")
       Virtual   (A') (A') (A') (A') (A') (A") (A') (A') (A") (A')
                 (A") (A') (A') (A') (A") (A') (A') (A") (A') (A')
                 (A") (A') (A") (A') (A') (A") (A') (A') (A") (A')
                 (A") (A') (A') (A") (A') (A') (A") (A') (A') (A")
                 (A') (A") (A') (A') (A") (A') (A') (A") (A') (A")
                 (A') (A') (A") (A") (A") (A') (A') (A') (A') (A")
                 (A') (A') (A") (A') (A')
 The electronic state is 1-A'.
 Alpha  occ. eigenvalues --  -24.72905 -19.24444  -1.25835  -0.98770  -0.58143
 Alpha  occ. eigenvalues --   -0.51196  -0.48513  -0.39998  -0.33437
 Alpha virt. eigenvalues --   -0.07290   0.00092   0.26408   0.28415   0.31858
 Alpha virt. eigenvalues --    0.32232   0.44102   0.47608   0.48518   0.52507
 Alpha virt. eigenvalues --    0.76859   0.80319   0.87088   1.09243   1.33295
 Alpha virt. eigenvalues --    1.36104   1.59256   1.69038   1.71460   1.88174
 Alpha virt. eigenvalues --    1.88886   1.94099   2.06403   2.14884   2.25042
 Alpha virt. eigenvalues --    2.33795   2.50523   2.75065   2.82974   2.90424
 Alpha virt. eigenvalues --    3.43144   3.47033   3.54464   3.63246   3.69490
 Alpha virt. eigenvalues --    3.78042   3.88779   3.95426   4.13892   4.24448
 Alpha virt. eigenvalues --    4.26460   4.33328   4.37735   4.40348   4.46128
 Alpha virt. eigenvalues --    4.47159   4.72766   4.81229   4.86116   5.27188
 Alpha virt. eigenvalues --    5.32491   5.98423   6.01467   6.14272   6.21194
 Alpha virt. eigenvalues --    6.24877   6.39854   6.66734   7.10914   7.50232
 Alpha virt. eigenvalues --    7.51556   7.61151   7.86556   7.92719   9.16032
          Condensed to atoms (all electrons):
               1          2          3
     1  O    7.783239  -0.006466   0.310418
     2  F   -0.006466   9.160568  -0.015457
     3  H    0.310418  -0.015457   0.479202
 Mulliken charges:
               1
     1  O   -0.087191
     2  F   -0.138646
     3  H    0.225836
 Sum of Mulliken charges =  -0.00000
 Mulliken charges with hydrogens summed into heavy atoms:
               1
     1  O    0.138646
     2  F   -0.138646
 Electronic spatial extent (au):  <R**2>=             59.6912
 Charge=             -0.0000 electrons
 Dipole moment (field-independent basis, Debye):
    X=             -1.7649    Y=              0.9434    Z=              0.0000  Tot=              2.0012
 Quadrupole moment (field-independent basis, Debye-Ang):
   XX=             -9.1436   YY=            -10.2939   ZZ=            -11.3740
   XY=             -1.6721   XZ=              0.0000   YZ=              0.0000
 Traceless Quadrupole moment (field-independent basis, Debye-Ang):
   XX=              1.1269   YY=             -0.0234   ZZ=             -1.1035
   XY=             -1.6721   XZ=              0.0000   YZ=              0.0000
 Octapole moment (field-independent basis, Debye-Ang**2):
  XXX=             -2.0885  YYY=             -1.0024  ZZZ=              0.0000  XYY=             -1.6738
  XXY=              0.8349  XXZ=              0.0000  XZZ=             -0.1942  YZZ=             -1.0372
  YYZ=              0.0000  XYZ=              0.0000
 Hexadecapole moment (field-independent basis, Debye-Ang**3):
 XXXX=             -8.0915 YYYY=            -37.6979 ZZZZ=             -8.5823 XXXY=             -0.5650
 XXXZ=              0.0000 YYYX=             -0.6266 YYYZ=              0.0000 ZZZX=              0.0000
 ZZZY=              0.0000 XXYY=             -7.4753 XXZZ=             -3.0783 YYZZ=             -8.8392
 XXYZ=              0.0000 YYXZ=              0.0000 ZZXY=              0.2502
 N-N= 3.358711294753D+01 E-N=-4.853032144700D+02  KE= 1.751672597999D+02
 Symmetry A'   KE= 1.634436429499D+02
 Symmetry A"   KE= 1.172361684994D+01
 Calling FoFJK, ICntrl=      2127 FMM=F ISym2X=1 I1Cent= 0 IOpClX= 0 NMat=1 NMatS=1 NMatT=0.
 ***** Axes restored to original set *****
 -------------------------------------------------------------------
 Center     Atomic                   Forces (Hartrees/Bohr)
 Number     Number              X              Y              Z
 -------------------------------------------------------------------
      1        8           0.000161864   -0.000021468   -0.000000000
      2        9           0.000004434   -0.000009923   -0.000000000
      3        1          -0.000166298    0.000031390   -0.000000000
 -------------------------------------------------------------------
 Cartesian Forces:  Max     0.000166298 RMS     0.000078471

 GradGradGradGradGradGradGradGradGradGradGradGradGradGradGradGradGradGrad
 Berny optimization.
 FormGI is forming the generalized inverse of G from B-inverse, IUseBI=4.
 Internal  Forces:  Max     0.000169064 RMS     0.000098011
 Search for a local minimum.
 Step number   1 out of a maximum of   20
 All quantities printed in internal units (Hartrees-Bohrs-Radians)
 Mixed Optimization -- En-DIIS/RFO-DIIS
 Second derivative matrix not updated -- first step.
 The second derivative matrix:
                          R1        R2        A1
           R1           0.40947
           R2           0.00000   0.53429
           A1           0.00000   0.00000   0.16000
 ITU=  0
     Eigenvalues ---    0.16000   0.40947   0.53429
 RFO step:  Lambda=-5.45911869D-08 EMin= 1.60000000D-01
 Linear search not attempted -- first point.
 Iteration  1 RMS(Cart)=  0.00016433 RMS(Int)=  0.00000001
 Iteration  2 RMS(Cart)=  0.00000001 RMS(Int)=  0.00000000
 ClnCor:  largest displacement from symmetrization is 0.00D+00 for atom     0.
 Variable       Old X    -DE/DX   Delta X   Delta X   Delta X     New X
                                 (Linear)    (Quad)   (Total)
    R1        2.70287   0.00001   0.00000   0.00002   0.00002   2.70289
    R2        1.83255   0.00017   0.00000   0.00032   0.00032   1.83287
    A1        1.72017   0.00001   0.00000   0.00007   0.00007   1.72025
         Item               Value     Threshold  Converged?
 Maximum Force            0.000169     0.000450     YES
 RMS     Force            0.000098     0.000300     YES
 Maximum Displacement     0.000183     0.001800     YES
 RMS     Displacement     0.000164     0.001200     YES
 Predicted change in Energy=-2.729559D-08
 Optimization completed.
    -- Stationary point found.
                           ----------------------------
                           !   Optimized Parameters   !
                           ! (Angstroms and Degrees)  !
 --------------------------                            --------------------------
 ! Name  Definition              Value          Derivative Info.                !
 --------------------------------------------------------------------------------
 ! R1    R(1,2)                  1.4303         -DE/DX =    0.0                 !
 ! R2    R(1,3)                  0.9697         -DE/DX =    0.0002              !
 ! A1    A(2,1,3)               98.5586         -DE/DX =    0.0                 !
 --------------------------------------------------------------------------------
 GradGradGradGradGradGradGradGradGradGradGradGradGradGradGradGradGradGrad

                          Input orientation:                          
 ---------------------------------------------------------------------
 Center     Atomic      Atomic             Coordinates (Angstroms)
 Number     Number       Type             X           Y           Z
 ---------------------------------------------------------------------
      1          8           0        0.053275    0.707131    0.000000
      2          9           0        0.053275   -0.723166    0.000000
      3          1           0       -0.905671    0.851450    0.000000
 ---------------------------------------------------------------------
                    Distance matrix (angstroms):
                    1          2          3
     1  O    0.000000
     2  F    1.430297   0.000000
     3  H    0.969745   1.843636   0.000000
 Stoichiometry    FHO
 Framework group  CS[SG(FHO)]
 Deg. of freedom     3
 Full point group                 CS      NOp   2
 Largest Abelian subgroup         CS      NOp   2
 Largest concise Abelian subgroup C1      NOp   1
                         Standard orientation:                         
 ---------------------------------------------------------------------
 Center     Atomic      Atomic             Coordinates (Angstroms)
 Number     Number       Type             X           Y           Z
 ---------------------------------------------------------------------
      1          8           0        0.053275    0.707131    0.000000
      2          9           0        0.053275   -0.723166    0.000000
      3          1           0       -0.905671    0.851450    0.000000
 ---------------------------------------------------------------------
 Rotational constants (GHZ):         588.5803464          27.1156488          25.9214582
 1\1\GINC-GAMBA\FOpt\RB3LYP\Gen\F1H1O1\IRIKURA\29-Sep-2023\0\\# b3lyp/g
 en opt freq CPHF(Grid=OneStep)\\HOF, B3LYP/pcseg-2\\0,1\O,0.053275,0.7
 07131,0.\F,0.053275,-0.723166,0.\H,-0.905671,0.85145,0.\\Version=ES64L
 -G16RevB.01\State=1-A'\HF=-175.6172422\RMSD=1.065e-09\RMSF=7.847e-05\D
 ipole=-0.6943495,0.3711597,0.\Quadrupole=0.8378439,-0.0174059,-0.82043
 79,-1.2431419,0.,0.\PG=CS [SG(F1H1O1)]\\@


 COLLEGE PROFESSOR: SOMEONE WHO TALKS IN OTHER PEOPLE'S SLEEP.
 Job cpu time:       0 days  0 hours  0 minutes 13.1 seconds.
 Elapsed time:       0 days  0 hours  0 minutes  3.3 seconds.
 File lengths (MBytes):  RWF=      6 Int=      0 D2E=      0 Chk=      2 Scr=      1
 Normal termination of Gaussian 16 at Fri Sep 29 23:47:39 2023.
 Link1:  Proceeding to internal job step number  2.
 ------------------------------------------------------------------
 #N Geom=AllCheck Guess=TCheck SCRF=Check GenChk RB3LYP/ChkBas Freq
 ------------------------------------------------------------------
 1/10=4,29=7,30=1,38=1,40=1/1,3;
 2/12=2,40=1/2;
 3/5=7,6=2,11=2,14=-4,25=1,30=1,67=1,70=2,71=2,74=-5,82=7,116=1,140=1/1,2,3;
 4/5=101/1;
 5/5=2,38=6,98=1/2;
 8/6=4,10=90,11=11/1;
 11/6=1,8=1,9=11,15=111,16=1/1,2,10;
 10/6=1,60=-420/2;
 6/7=2,8=2,9=2,10=2,28=1/1;
 7/8=1,10=1,25=1/1,2,3,16;
 1/10=4,30=1/3;
 99//99;
 Structure from the checkpoint file:  "hof.chk"
 ------------------
 HOF, B3LYP/pcseg-2
 ------------------
 Charge =  0 Multiplicity = 1
 Redundant internal coordinates found in file.  (old form).
 O,0,0.053275,0.707131,0.
 F,0,0.053275,-0.723166,0.
 H,0,-0.905671,0.85145,0.
 Recover connectivity data from disk.

 GradGradGradGradGradGradGradGradGradGradGradGradGradGradGradGradGradGrad
 Berny optimization.
 Initialization pass.
                           ----------------------------
                           !    Initial Parameters    !
                           ! (Angstroms and Degrees)  !
 --------------------------                            --------------------------
 ! Name  Definition              Value          Derivative Info.                !
 --------------------------------------------------------------------------------
 ! R1    R(1,2)                  1.4303         calculate D2E/DX2 analytically  !
 ! R2    R(1,3)                  0.9697         calculate D2E/DX2 analytically  !
 ! A1    A(2,1,3)               98.5586         calculate D2E/DX2 analytically  !
 --------------------------------------------------------------------------------
 Trust Radius=3.00D-01 FncErr=1.00D-07 GrdErr=1.00D-07 EigMax=2.50D+02 EigMin=1.00D-04
 Number of steps in this run=      2 maximum allowed number of steps=      2.
 GradGradGradGradGradGradGradGradGradGradGradGradGradGradGradGradGradGrad

                          Input orientation:                          
 ---------------------------------------------------------------------
 Center     Atomic      Atomic             Coordinates (Angstroms)
 Number     Number       Type             X           Y           Z
 ---------------------------------------------------------------------
      1          8           0        0.053275    0.707131    0.000000
      2          9           0        0.053275   -0.723166    0.000000
      3          1           0       -0.905671    0.851450    0.000000
 ---------------------------------------------------------------------
                    Distance matrix (angstroms):
                    1          2          3
     1  O    0.000000
     2  F    1.430297   0.000000
     3  H    0.969745   1.843636   0.000000
 Stoichiometry    FHO
 Framework group  CS[SG(FHO)]
 Deg. of freedom     3
 Full point group                 CS      NOp   2
 Largest Abelian subgroup         CS      NOp   2
 Largest concise Abelian subgroup C1      NOp   1
                         Standard orientation:                         
 ---------------------------------------------------------------------
 Center     Atomic      Atomic             Coordinates (Angstroms)
 Number     Number       Type             X           Y           Z
 ---------------------------------------------------------------------
      1          8           0        0.053275    0.707131    0.000000
      2          9           0        0.053275   -0.723166    0.000000
      3          1           0       -0.905671    0.851450    0.000000
 ---------------------------------------------------------------------
 Rotational constants (GHZ):         588.5803464          27.1156488          25.9214582
 Basis read from chk: "hof.chk" (5D, 7F)
 There are    59 symmetry adapted cartesian basis functions of A'  symmetry.
 There are    26 symmetry adapted cartesian basis functions of A"  symmetry.
 There are    50 symmetry adapted basis functions of A'  symmetry.
 There are    24 symmetry adapted basis functions of A"  symmetry.
    74 basis functions,   120 primitive gaussians,    85 cartesian basis functions
     9 alpha electrons        9 beta electrons
       nuclear repulsion energy        33.5871129475 Hartrees.
 NAtoms=    3 NActive=    3 NUniq=    3 SFac= 1.00D+00 NAtFMM=   60 NAOKFM=F Big=F
 Integral buffers will be    131072 words long.
 Raffenetti 2 integral format.
 Two-electron integral symmetry is turned on.
 One-electron integrals computed using PRISM.
 NBasis=    74 RedAO= T EigKep=  5.18D-03  NBF=    50    24
 NBsUse=    74 1.00D-06 EigRej= -1.00D+00 NBFU=    50    24
 Initial guess from the checkpoint file:  "hof.chk"
 B after Tr=     0.000000    0.000000    0.000000
         Rot=    1.000000    0.000000    0.000000    0.000000 Ang=   0.00 deg.
 Initial guess orbital symmetries:
       Occupied  (A') (A') (A') (A') (A') (A') (A") (A') (A")
       Virtual   (A') (A') (A') (A') (A') (A") (A') (A') (A") (A')
                 (A") (A') (A') (A') (A") (A') (A') (A") (A') (A')
                 (A") (A') (A") (A') (A') (A") (A') (A') (A") (A')
                 (A") (A') (A') (A") (A') (A') (A") (A') (A') (A")
                 (A') (A") (A') (A') (A") (A') (A') (A") (A') (A")
                 (A') (A') (A") (A") (A") (A') (A') (A') (A') (A")
                 (A') (A') (A") (A') (A')
 Keep R1 ints in memory in symmetry-blocked form, NReq=7498490.
 Requested convergence on RMS density matrix=1.00D-08 within 128 cycles.
 Requested convergence on MAX density matrix=1.00D-06.
 Requested convergence on             energy=1.00D-06.
 No special actions if energy rises.
 SCF Done:  E(RB3LYP) =  -175.617242168     A.U. after    1 cycles
            NFock=  1  Conv=0.34D-09     -V/T= 2.0026
 DoSCS=F DFT=T ScalE2(SS,OS)=  1.000000  1.000000
 Range of M.O.s used for correlation:     1    74
 NBasis=    74 NAE=     9 NBE=     9 NFC=     0 NFV=     0
 NROrb=     74 NOA=     9 NOB=     9 NVA=    65 NVB=    65
 Symmetrizing basis deriv contribution to polar:
 IMax=3 JMax=2 DiffMx= 0.00D+00
 G2DrvN: will do     4 centers at a time, making    1 passes.
 Calling FoFCou, ICntrl=  3107 FMM=F I1Cent=   0 AccDes= 0.00D+00.
 End of G2Drv F.D. properties file   721 does not exist.
 End of G2Drv F.D. properties file   722 does not exist.
 End of G2Drv F.D. properties file   788 does not exist.
          IDoAtm=111
          Differentiating once with respect to electric field.
                with respect to dipole field.
          Differentiating once with respect to nuclear coordinates.
 Keep R1 ints in memory in symmetry-blocked form, NReq=7492124.
          There are    12 degrees of freedom in the 1st order CPHF.  IDoFFX=6 NUNeed=     3.
      9 vectors produced by pass  0 Test12= 4.87D-15 8.33D-09 XBig12= 9.91D+00 2.19D+00.
 AX will form     9 AO Fock derivatives at one time.
      9 vectors produced by pass  1 Test12= 4.87D-15 8.33D-09 XBig12= 4.05D+00 8.15D-01.
      9 vectors produced by pass  2 Test12= 4.87D-15 8.33D-09 XBig12= 1.21D-01 1.01D-01.
      9 vectors produced by pass  3 Test12= 4.87D-15 8.33D-09 XBig12= 5.21D-04 8.72D-03.
      9 vectors produced by pass  4 Test12= 4.87D-15 8.33D-09 XBig12= 1.14D-06 3.17D-04.
      9 vectors produced by pass  5 Test12= 4.87D-15 8.33D-09 XBig12= 7.62D-10 6.90D-06.
      3 vectors produced by pass  6 Test12= 4.87D-15 8.33D-09 XBig12= 8.47D-13 2.94D-07.
 InvSVY:  IOpt=1 It=  1 EMax= 6.66D-16
 Solved reduced A of dimension    57 with     9 vectors.
 Isotropic polarizability for W=    0.000000        9.46 Bohr**3.
 End of Minotr F.D. properties file   721 does not exist.
 End of Minotr F.D. properties file   722 does not exist.
 End of Minotr F.D. properties file   788 does not exist.

 **********************************************************************

            Population analysis using the SCF Density.

 **********************************************************************

 Orbital symmetries:
       Occupied  (A') (A') (A') (A') (A') (A') (A") (A') (A")
       Virtual   (A') (A') (A') (A') (A') (A") (A') (A') (A") (A')
                 (A") (A') (A') (A') (A") (A') (A') (A") (A') (A')
                 (A") (A') (A") (A') (A') (A") (A') (A') (A") (A')
                 (A") (A') (A') (A") (A') (A') (A") (A') (A') (A")
                 (A') (A") (A') (A') (A") (A') (A') (A") (A') (A")
                 (A') (A') (A") (A") (A") (A') (A') (A') (A') (A")
                 (A') (A') (A") (A') (A')
 The electronic state is 1-A'.
 Alpha  occ. eigenvalues --  -24.72905 -19.24444  -1.25835  -0.98770  -0.58143
 Alpha  occ. eigenvalues --   -0.51196  -0.48513  -0.39998  -0.33437
 Alpha virt. eigenvalues --   -0.07290   0.00092   0.26408   0.28415   0.31858
 Alpha virt. eigenvalues --    0.32232   0.44102   0.47608   0.48518   0.52507
 Alpha virt. eigenvalues --    0.76859   0.80319   0.87088   1.09243   1.33295
 Alpha virt. eigenvalues --    1.36104   1.59256   1.69038   1.71460   1.88174
 Alpha virt. eigenvalues --    1.88886   1.94099   2.06403   2.14884   2.25042
 Alpha virt. eigenvalues --    2.33795   2.50523   2.75065   2.82974   2.90424
 Alpha virt. eigenvalues --    3.43144   3.47033   3.54464   3.63246   3.69490
 Alpha virt. eigenvalues --    3.78042   3.88779   3.95426   4.13892   4.24448
 Alpha virt. eigenvalues --    4.26460   4.33328   4.37735   4.40348   4.46128
 Alpha virt. eigenvalues --    4.47159   4.72766   4.81229   4.86116   5.27188
 Alpha virt. eigenvalues --    5.32491   5.98423   6.01467   6.14272   6.21194
 Alpha virt. eigenvalues --    6.24877   6.39854   6.66734   7.10914   7.50232
 Alpha virt. eigenvalues --    7.51556   7.61151   7.86556   7.92719   9.16032
          Condensed to atoms (all electrons):
               1          2          3
     1  O    7.783239  -0.006466   0.310418
     2  F   -0.006466   9.160568  -0.015457
     3  H    0.310418  -0.015457   0.479202
 Mulliken charges:
               1
     1  O   -0.087191
     2  F   -0.138645
     3  H    0.225836
 Sum of Mulliken charges =  -0.00000
 Mulliken charges with hydrogens summed into heavy atoms:
               1
     1  O    0.138645
     2  F   -0.138645
 APT charges:
               1
     1  O   -0.062098
     2  F   -0.217971
     3  H    0.280069
 Sum of APT charges =   0.00000
 APT charges with hydrogens summed into heavy atoms:
               1
     1  O    0.217971
     2  F   -0.217971
 Electronic spatial extent (au):  <R**2>=             59.6912
 Charge=              0.0000 electrons
 Dipole moment (field-independent basis, Debye):
    X=             -1.7649    Y=              0.9434    Z=              0.0000  Tot=              2.0012
 Quadrupole moment (field-independent basis, Debye-Ang):
   XX=             -9.1436   YY=            -10.2939   ZZ=            -11.3740
   XY=             -1.6721   XZ=              0.0000   YZ=              0.0000
 Traceless Quadrupole moment (field-independent basis, Debye-Ang):
   XX=              1.1269   YY=             -0.0234   ZZ=             -1.1035
   XY=             -1.6721   XZ=              0.0000   YZ=              0.0000
 Octapole moment (field-independent basis, Debye-Ang**2):
  XXX=             -2.0885  YYY=             -1.0024  ZZZ=              0.0000  XYY=             -1.6738
  XXY=              0.8349  XXZ=              0.0000  XZZ=             -0.1942  YZZ=             -1.0372
  YYZ=              0.0000  XYZ=              0.0000
 Hexadecapole moment (field-independent basis, Debye-Ang**3):
 XXXX=             -8.0914 YYYY=            -37.6979 ZZZZ=             -8.5823 XXXY=             -0.5650
 XXXZ=              0.0000 YYYX=             -0.6266 YYYZ=              0.0000 ZZZX=              0.0000
 ZZZY=              0.0000 XXYY=             -7.4753 XXZZ=             -3.0783 YYZZ=             -8.8392
 XXYZ=              0.0000 YYXZ=              0.0000 ZZXY=              0.2502
 N-N= 3.358711294753D+01 E-N=-4.853032146039D+02  KE= 1.751672598546D+02
 Symmetry A'   KE= 1.634436429798D+02
 Symmetry A"   KE= 1.172361687487D+01
  Exact polarizability:   8.300  -0.899  13.696   0.000   0.000   6.372
 Approx polarizability:  10.500  -0.984  21.055  -0.000  -0.000   7.286
 Calling FoFJK, ICntrl=    100127 FMM=F ISym2X=1 I1Cent= 0 IOpClX= 0 NMat=1 NMatS=1 NMatT=0.
 Full mass-weighted force constant matrix:
 Low frequencies ---  -49.2408  -11.5281   -3.3844   -0.0004    0.0009    0.0009
 Low frequencies ---  981.6457 1407.3415 3734.3053
 Diagonal vibrational polarizability:
        0.0762156       1.0342022       0.0000000
 Harmonic frequencies (cm**-1), IR intensities (KM/Mole), Raman scattering
 activities (A**4/AMU), depolarization ratios for plane and unpolarized
 incident light, reduced masses (AMU), force constants (mDyne/A),
 and normal coordinates:
                      1                      2                      3
                     A'                     A'                     A'
 Frequencies --    981.6457              1407.3414              3734.3053
 Red. masses --     16.9607                 1.0927                 1.0687
 Frc consts  --      9.6295                 1.2752                 8.7807
 IR Inten    --      9.1087                56.5361                45.5311
  Atom  AN      X      Y      Z        X      Y      Z        X      Y      Z
     1   8     0.01   0.76   0.00    -0.05  -0.03   0.00    -0.06   0.01  -0.00
     2   9    -0.00  -0.64   0.00     0.04  -0.03   0.00     0.00  -0.00  -0.00
     3   1    -0.13  -0.01   0.00     0.09   0.99   0.00     0.99  -0.13  -0.00

 -------------------
 - Thermochemistry -
 -------------------
 Temperature   298.150 Kelvin.  Pressure   1.00000 Atm.
 Atom     1 has atomic number  8 and mass  15.99491
 Atom     2 has atomic number  9 and mass  18.99840
 Atom     3 has atomic number  1 and mass   1.00783
 Molecular mass:    36.00114 amu.
 Principal axes and moments of inertia in atomic units:
                           1         2         3
     Eigenvalues --     3.06626  66.55718  69.62344
           X           -0.04871   0.99881   0.00000
           Y            0.99881   0.04871   0.00000
           Z           -0.00000   0.00000   1.00000
 This molecule is an asymmetric top.
 Rotational symmetry number  1.
 Rotational temperatures (Kelvin)     28.24740     1.30135     1.24403
 Rotational constants (GHZ):         588.58035    27.11565    25.92146
 Zero-point vibrational energy      36625.4 (Joules/Mol)
                                    8.75369 (Kcal/Mol)
 Vibrational temperatures:   1412.37  2024.85  5372.83
          (Kelvin)
 
 Zero-point correction=                           0.013950 (Hartree/Particle)
 Thermal correction to Energy=                    0.016829
 Thermal correction to Enthalpy=                  0.017773
 Thermal correction to Gibbs Free Energy=        -0.007929
 Sum of electronic and zero-point Energies=           -175.603292
 Sum of electronic and thermal Energies=              -175.600413
 Sum of electronic and thermal Enthalpies=            -175.599469
 Sum of electronic and thermal Free Energies=         -175.625171
 
                     E (Thermal)             CV                S
                      KCal/Mol        Cal/Mol-Kelvin    Cal/Mol-Kelvin
 Total                   10.560              6.463             54.094
 Electronic               0.000              0.000              0.000
 Translational            0.889              2.981             36.673
 Rotational               0.889              2.981             17.303
 Vibrational              8.783              0.501              0.118
                       Q            Log10(Q)             Ln(Q)
 Total Bot       0.443474D+04          3.646868          8.397224
 Total V=0       0.115708D+11         10.063365         23.171754
 Vib (Bot)       0.387092D-06         -6.412186        -14.764603
 Vib (V=0)       0.100998D+01          0.004311          0.009927
 Electronic      0.100000D+01          0.000000          0.000000
 Translational   0.849040D+07          6.928928         15.954447
 Rotational      0.134935D+04          3.130125          7.207380
 ***** Axes restored to original set *****
 -------------------------------------------------------------------
 Center     Atomic                   Forces (Hartrees/Bohr)
 Number     Number              X              Y              Z
 -------------------------------------------------------------------
      1        8           0.000161869   -0.000021464   -0.000000000
      2        9           0.000004438   -0.000009930   -0.000000000
      3        1          -0.000166307    0.000031394   -0.000000000
 -------------------------------------------------------------------
 Cartesian Forces:  Max     0.000166307 RMS     0.000078474
 FormGI is forming the generalized inverse of G from B-inverse, IUseBI=4.

 GradGradGradGradGradGradGradGradGradGradGradGradGradGradGradGradGradGrad
 Berny optimization.
 Internal  Forces:  Max     0.000169073 RMS     0.000098016
 Search for a local minimum.
 Step number   1 out of a maximum of    2
 All quantities printed in internal units (Hartrees-Bohrs-Radians)
 Second derivative matrix not updated -- analytic derivatives used.
 The second derivative matrix:
                          R1        R2        A1
           R1           0.33822
           R2          -0.00713   0.49970
           A1           0.07010  -0.00556   0.23254
 ITU=  0
     Eigenvalues ---    0.19759   0.37255   0.50032
 Angle between quadratic step and forces=   4.61 degrees.
 Linear search not attempted -- first point.
 Iteration  1 RMS(Cart)=  0.00016529 RMS(Int)=  0.00000001
 Iteration  2 RMS(Cart)=  0.00000001 RMS(Int)=  0.00000000
 ClnCor:  largest displacement from symmetrization is 0.00D+00 for atom     0.
 Variable       Old X    -DE/DX   Delta X   Delta X   Delta X     New X
                                 (Linear)    (Quad)   (Total)
    R1        2.70287   0.00001   0.00000   0.00003   0.00003   2.70290
    R2        1.83255   0.00017   0.00000   0.00034   0.00034   1.83289
    A1        1.72017   0.00001   0.00000   0.00005   0.00005   1.72022
         Item               Value     Threshold  Converged?
 Maximum Force            0.000169     0.000450     YES
 RMS     Force            0.000098     0.000300     YES
 Maximum Displacement     0.000192     0.001800     YES
 RMS     Displacement     0.000165     0.001200     YES
 Predicted change in Energy=-2.910724D-08
 Optimization completed.
    -- Stationary point found.
                           ----------------------------
                           !   Optimized Parameters   !
                           ! (Angstroms and Degrees)  !
 --------------------------                            --------------------------
 ! Name  Definition              Value          Derivative Info.                !
 --------------------------------------------------------------------------------
 ! R1    R(1,2)                  1.4303         -DE/DX =    0.0                 !
 ! R2    R(1,3)                  0.9697         -DE/DX =    0.0002              !
 ! A1    A(2,1,3)               98.5586         -DE/DX =    0.0                 !
 --------------------------------------------------------------------------------
 GradGradGradGradGradGradGradGradGradGradGradGradGradGradGradGradGradGrad


 ----------------------------------------------------------------------

 Electric dipole moment (input orientation):
 (Debye = 10**-18 statcoulomb cm , SI units = C m)
                  (au)            (Debye)         (10**-30 SI)
   Tot        0.787325D+00      0.200118D+01      0.667522D+01
   x         -0.694350D+00     -0.176486D+01     -0.588694D+01
   y          0.371160D+00      0.943394D+00      0.314682D+01
   z          0.000000D+00      0.000000D+00      0.000000D+00

 Dipole polarizability, Alpha (input orientation).
 (esu units = cm**3 , SI units = C**2 m**2 J**-1)
 Alpha(0;0):
               (au)            (10**-24 esu)      (10**-40 SI)
   iso        0.945586D+01      0.140121D+01      0.155906D+01
   aniso      0.675715D+01      0.100131D+01      0.111410D+01
   xx         0.830038D+01      0.122999D+01      0.136855D+01
   yx        -0.898749D+00     -0.133181D+00     -0.148184D+00
   yy         0.136956D+02      0.202948D+01      0.225811D+01
   zx         0.000000D+00      0.000000D+00      0.000000D+00
   zy         0.000000D+00      0.000000D+00      0.000000D+00
   zz         0.637155D+01      0.944167D+00      0.105053D+01

 ----------------------------------------------------------------------

 Dipole orientation:
     8          0.57793175          1.08116974          0.54116273
     9         -0.54578247         -1.02102626         -0.73302032
     1          0.28859307          0.53988745          2.26787790

 Electric dipole moment (dipole orientation):
 (Debye = 10**-18 statcoulomb cm , SI units = C m)
                  (au)            (Debye)         (10**-30 SI)
   Tot        0.787325D+00      0.200118D+01      0.667522D+01
   x          0.000000D+00      0.000000D+00      0.000000D+00
   y          0.000000D+00      0.000000D+00      0.000000D+00
   z          0.787325D+00      0.200118D+01      0.667522D+01

 Dipole polarizability, Alpha (dipole orientation).
 (esu units = cm**3 , SI units = C**2 m**2 J**-1)
 Alpha(0;0):
               (au)            (10**-24 esu)      (10**-40 SI)
   iso        0.945586D+01      0.140121D+01      0.155906D+01
   aniso      0.675715D+01      0.100131D+01      0.111410D+01
   xx         0.756668D+01      0.112127D+01      0.124758D+01
   yx         0.223580D+01      0.331311D+00      0.368633D+00
   yy         0.105542D+02      0.156397D+01      0.174015D+01
   zx         0.129280D+01      0.191573D+00      0.213154D+00
   zy         0.241851D+01      0.358386D+00      0.398758D+00
   zz         0.102467D+02      0.151840D+01      0.168945D+01

 ----------------------------------------------------------------------
 1\1\GINC-GAMBA\Freq\RB3LYP\Gen\F1H1O1\IRIKURA\29-Sep-2023\0\\#N Geom=A
 llCheck Guess=TCheck SCRF=Check GenChk RB3LYP/ChkBas Freq\\HOF, B3LYP/
 pcseg-2\\0,1\O,0.053275,0.707131,0.\F,0.053275,-0.723166,0.\H,-0.90567
 1,0.85145,0.\\Version=ES64L-G16RevB.01\State=1-A'\HF=-175.6172422\RMSD
 =3.409e-10\RMSF=7.847e-05\ZeroPoint=0.0139499\Thermal=0.0168292\Dipole
 =-0.6943495,0.3711597,0.\DipoleDeriv=-0.0619888,0.1418,0.,0.0013627,0.
 1602054,0.,0.,0.,-0.2845111,-0.1351138,-0.0880405,0.,0.0250045,-0.4201
 439,0.,0.,0.,-0.098654,0.1971026,-0.0537595,0.,-0.0263672,0.2599384,0.
 ,0.,0.,0.3831651\Polar=8.3003751,-0.8987493,13.695642,0.,0.,6.3715542\
 Quadrupole=0.8378438,-0.0174059,-0.8204379,-1.2431419,0.,0.\PG=CS [SG(
 F1H1O1)]\NImag=0\\0.54092250,-0.05302291,0.34247863,0.,0.,-0.00008761,
 -0.04084608,-0.02018197,0.,0.03182419,0.03868017,-0.30144920,0.,-0.025
 93731,0.33821871,0.,0.,0.00000217,0.,0.,-0.00000392,-0.50007641,0.0732
 0489,0.,0.00902189,-0.01274286,0.,0.49105452,0.01434275,-0.04102943,0.
 ,0.04611928,-0.03676952,0.,-0.06046203,0.07779895,0.,0.,0.00008544,0.,
 0.,0.00000175,0.,0.,-0.00008718\\-0.00016187,0.00002146,0.,-0.00000444
 ,0.00000993,0.,0.00016631,-0.00003139,0.\\\@



 WE LOSE BECAUSE WE WIN

 GAMBLERS,

 RECOLLECTING WHICH,

 TOSS THEIR DICE AGAIN....


                          EMILY DICKINSON  BOLTS OF MELODY NO. 533
 Job cpu time:       0 days  0 hours  0 minutes 46.1 seconds.
 Elapsed time:       0 days  0 hours  0 minutes 11.5 seconds.
 File lengths (MBytes):  RWF=      6 Int=      0 D2E=      0 Chk=      2 Scr=      1
 Normal termination of Gaussian 16 at Fri Sep 29 23:47:51 2023.
 AtFile(1): ccpvtz-f12.gbs
            -H     0
            S    3   1.00
                 82.6400000              0.0020060
                 12.4100000              0.0153430
                  2.8240000              0.0755790
            S    1   1.00
                  0.7977000              1.0000000
            S    1   1.00
                  0.2581000              1.0000000
            S    1   1.00
                  0.0898900              1.0000000
            P    1   1.00
                  1.5513000              1.0000000
            P    1   1.00
                  0.5580000              1.0000000
            P    1   1.00
                  0.2007000              1.0000000
            D    1   1.00
                  0.4648000              1.0000000
            ****
            -He     0
            S    4   1.00
                528.5000000              0.0009400
                 79.3100000              0.0072140
                 18.0500000              0.0359750
                  5.0850000              0.1277820
            S    1   1.00
                  1.6090000              1.0000000
            S    1   1.00
                  0.5363000              1.0000000
            S    1   1.00
                  0.1833000              1.0000000
            S    1   1.00
                  0.0481900              1.0000000
            P    1   1.00
                  3.7026000              1.0000000
            P    1   1.00
                  1.2284000              1.0000000
            P    1   1.00
                  0.4075000              1.0000000
            D    1   1.00
                  0.6525000              1.0000000
            ****
            -Li     0
            S    9   1.00
               6601.0000000              0.0001170
                989.7000000              0.0009110
                225.7000000              0.0047280
                 64.2900000              0.0191970
                 21.1800000              0.0630470
                  7.7240000              0.1632080
                  3.0030000              0.3148270
                  1.2120000              0.3939360
                  0.4930000              0.1969180
            S    9   1.00
               6601.0000000             -0.0000180
                989.7000000             -0.0001420
                225.7000000             -0.0007410
                 64.2900000             -0.0030200
                 21.1800000             -0.0101230
                  7.7240000             -0.0270940
                  3.0030000             -0.0573590
                  1.2120000             -0.0938950
                  0.4930000             -0.1210910
            S    1   1.00
                  0.0951500              1.0000000
            S    1   1.00
                  0.0479100              1.0000000
            S    1   1.00
                  0.0222000              1.0000000
            S    1   1.00
                  0.0064000              1.0000000
            P    2   1.00
                  6.2500000              0.0033880
                  1.3700000              0.0193160
            P    1   1.00
                  0.3672000              1.0000000
            P    1   1.00
                  0.1192000              1.0000000
            P    1   1.00
                  0.0447400              1.0000000
            P    1   1.00
                  0.0179500              1.0000000
            P    1   1.00
                  0.0075000              1.0000000
            D    1   1.00
                  0.2351180              1.0000000
            D    1   1.00
                  0.1194040              1.0000000
            D    1   1.00
                  0.0606390              1.0000000
            F    1   1.00
                  0.1637750              1.0000000
            F    1   1.00
                  0.0759100              1.0000000
            ****
            -Be     0
            S    9   1.00
              14630.0000000              0.0000920
               2191.0000000              0.0007130
                498.2000000              0.0037350
                140.9000000              0.0154680
                 45.8600000              0.0528740
                 16.4700000              0.1456940
                  6.3190000              0.3026810
                  2.5350000              0.4049360
                  1.0350000              0.2223870
            S    9   1.00
              14630.0000000             -0.0000170
               2191.0000000             -0.0001300
                498.2000000             -0.0006790
                140.9000000             -0.0028570
                 45.8600000             -0.0098130
                 16.4700000             -0.0286090
                  6.3190000             -0.0637600
                  2.5350000             -0.1172310
                  1.0350000             -0.1212020
            S    1   1.00
                  0.2528000              1.0000000
            S    1   1.00
                  0.1052000              1.0000000
            S    1   1.00
                  0.0426100              1.0000000
            S    1   1.00
                  0.0141000              1.0000000
            P    2   1.00
                 14.0300000              0.0040990
                  3.1680000              0.0256260
            P    1   1.00
                  0.9024000              1.0000000
            P    1   1.00
                  0.3036000              1.0000000
            P    1   1.00
                  0.1130000              1.0000000
            P    1   1.00
                  0.0428600              1.0000000
            P    1   1.00
                  0.0084000              1.0000000
            D    1   1.00
                  0.4670460              1.0000000
            D    1   1.00
                  0.2205970              1.0000000
            D    1   1.00
                  0.1041940              1.0000000
            F    1   1.00
                  0.3166400              1.0000000
            F    1   1.00
                  0.1457880              1.0000000
            ****
            -B     0
            S    9   1.00
              23870.0000000              0.0000880
               3575.0000000              0.0006870
                812.8000000              0.0036000
                229.7000000              0.0149490
                 74.6900000              0.0514350
                 26.8100000              0.1433020
                 10.3200000              0.3009350
                  4.1780000              0.4035260
                  1.7270000              0.2253400
            S    9   1.00
              23870.0000000             -0.0000180
               3575.0000000             -0.0001390
                812.8000000             -0.0007250
                229.7000000             -0.0030630
                 74.6900000             -0.0105810
                 26.8100000             -0.0313650
                 10.3200000             -0.0710120
                  4.1780000             -0.1321030
                  1.7270000             -0.1230720
            S    1   1.00
                  0.4704000              1.0000000
            S    1   1.00
                  0.1896000              1.0000000
            S    1   1.00
                  0.0739400              1.0000000
            S    1   1.00
                  0.0272100              1.0000000
            P    2   1.00
                 22.2600000              0.0050950
                  5.0580000              0.0332060
            P    1   1.00
                  1.4870000              1.0000000
            P    1   1.00
                  0.5071000              1.0000000
            P    1   1.00
                  0.1812000              1.0000000
            P    1   1.00
                  0.0646300              1.0000000
            P    1   1.00
                  0.0187800              1.0000000
            D    1   1.00
                  1.4403000              1.0000000
            D    1   1.00
                  0.5333000              1.0000000
            D    1   1.00
                  0.1975000              1.0000000
            F    1   1.00
                  0.8479000              1.0000000
            F    1   1.00
                  0.2484000              1.0000000
            ****
            -C     0
            S    9   1.00
              33980.0000000              0.0000910
               5089.0000000              0.0007040
               1157.0000000              0.0036930
                326.6000000              0.0153600
                106.1000000              0.0529290
                 38.1100000              0.1470430
                 14.7500000              0.3056310
                  6.0350000              0.3993450
                  2.5300000              0.2170510
            S    9   1.00
              33980.0000000             -0.0000190
               5089.0000000             -0.0001510
               1157.0000000             -0.0007850
                326.6000000             -0.0033240
                106.1000000             -0.0115120
                 38.1100000             -0.0341600
                 14.7500000             -0.0771730
                  6.0350000             -0.1414930
                  2.5300000             -0.1180190
            S    1   1.00
                  0.7355000              1.0000000
            S    1   1.00
                  0.2905000              1.0000000
            S    1   1.00
                  0.1111000              1.0000000
            S    1   1.00
                  0.0414500              1.0000000
            P    2   1.00
                 34.5100000              0.0053780
                  7.9150000              0.0361320
            P    1   1.00
                  2.3680000              1.0000000
            P    1   1.00
                  0.8132000              1.0000000
            P    1   1.00
                  0.2890000              1.0000000
            P    1   1.00
                  0.1007000              1.0000000
            P    1   1.00
                  0.0321800              1.0000000
            D    1   1.00
                  2.2805000              1.0000000
            D    1   1.00
                  0.7834000              1.0000000
            D    1   1.00
                  0.2691000              1.0000000
            F    1   1.00
                  1.0371000              1.0000000
            F    1   1.00
                  0.3459000              1.0000000
            ****
            -N     0
            S    9   1.00
              45840.0000000              0.0000920
               6868.0000000              0.0007170
               1563.0000000              0.0037490
                442.4000000              0.0155320
                144.3000000              0.0531460
                 52.1800000              0.1467870
                 20.3400000              0.3046630
                  8.3810000              0.3976840
                  3.5290000              0.2176410
            S    9   1.00
              45840.0000000             -0.0000200
               6868.0000000             -0.0001590
               1563.0000000             -0.0008240
                442.4000000             -0.0034780
                144.3000000             -0.0119660
                 52.1800000             -0.0353880
                 20.3400000             -0.0800770
                  8.3810000             -0.1467220
                  3.5290000             -0.1163600
            S    1   1.00
                  1.0540000              1.0000000
            S    1   1.00
                  0.4118000              1.0000000
            S    1   1.00
                  0.1552000              1.0000000
            S    1   1.00
                  0.0546400              1.0000000
            P    2   1.00
                 49.3300000              0.0055330
                 11.3700000              0.0379620
            P    1   1.00
                  3.4350000              1.0000000
            P    1   1.00
                  1.1820000              1.0000000
            P    1   1.00
                  0.4173000              1.0000000
            P    1   1.00
                  0.1428000              1.0000000
            P    1   1.00
                  0.0440200              1.0000000
            D    1   1.00
                  3.0521000              1.0000000
            D    1   1.00
                  1.0393000              1.0000000
            D    1   1.00
                  0.3539000              1.0000000
            F    1   1.00
                  1.3498000              1.0000000
            F    1   1.00
                  0.4638000              1.0000000
            ****
            -O     0
            S    9   1.00
              61420.0000000              0.0000900
               9199.0000000              0.0006980
               2091.0000000              0.0036640
                590.9000000              0.0152180
                192.3000000              0.0524230
                 69.3200000              0.1459210
                 26.9700000              0.3052580
                 11.1000000              0.3985080
                  4.6820000              0.2169800
            S    9   1.00
              61420.0000000             -0.0000200
               9199.0000000             -0.0001590
               2091.0000000             -0.0008290
                590.9000000             -0.0035080
                192.3000000             -0.0121560
                 69.3200000             -0.0362610
                 26.9700000             -0.0829920
                 11.1000000             -0.1520900
                  4.6820000             -0.1153310
            S    1   1.00
                  1.4280000              1.0000000
            S    1   1.00
                  0.5547000              1.0000000
            S    1   1.00
                  0.2067000              1.0000000
            S    1   1.00
                  0.0695900              1.0000000
            P    2   1.00
                 63.4200000              0.0060440
                 14.6600000              0.0417990
            P    1   1.00
                  4.4590000              1.0000000
            P    1   1.00
                  1.5310000              1.0000000
            P    1   1.00
                  0.5302000              1.0000000
            P    1   1.00
                  0.1750000              1.0000000
            P    1   1.00
                  0.0534800              1.0000000
            D    1   1.00
                  3.3422000              1.0000000
            D    1   1.00
                  1.1491000              1.0000000
            D    1   1.00
                  0.3951000              1.0000000
            F    1   1.00
                  1.4956000              1.0000000
            F    1   1.00
                  0.5379000              1.0000000
            ****
            -F     0
            S    9   1.00
              74530.0000000              0.0000950
              11170.0000000              0.0007380
               2543.0000000              0.0038580
                721.0000000              0.0159260
                235.9000000              0.0542890
                 85.6000000              0.1495130
                 33.5500000              0.3082520
                 13.9300000              0.3948530
                  5.9150000              0.2110310
            S    9   1.00
              74530.0000000             -0.0000220
              11170.0000000             -0.0001720
               2543.0000000             -0.0008910
                721.0000000             -0.0037480
                235.9000000             -0.0128620
                 85.6000000             -0.0380610
                 33.5500000             -0.0862390
                 13.9300000             -0.1558650
                  5.9150000             -0.1109140
            S    1   1.00
                  1.8430000              1.0000000
            S    1   1.00
                  0.7124000              1.0000000
            S    1   1.00
                  0.2637000              1.0000000
            S    1   1.00
                  0.0859400              1.0000000
            P    2   1.00
                 80.3900000              0.0063470
                 18.6300000              0.0442040
            P    1   1.00
                  5.6940000              1.0000000
            P    1   1.00
                  1.9530000              1.0000000
            P    1   1.00
                  0.6702000              1.0000000
            P    1   1.00
                  0.2166000              1.0000000
            P    1   1.00
                  0.0656800              1.0000000
            D    1   1.00
                  4.2272000              1.0000000
            D    1   1.00
                  1.3897000              1.0000000
            D    1   1.00
                  0.4569000              1.0000000
            F    1   1.00
                  2.5974000              1.0000000
            F    1   1.00
                  0.8514000              1.0000000
            ****
            -Ne     0
            S    9   1.00
              99920.0000000              0.0000860
              14960.0000000              0.0006690
               3399.0000000              0.0035180
                958.9000000              0.0146670
                311.2000000              0.0509620
                111.7000000              0.1437440
                 43.3200000              0.3045620
                 17.8000000              0.4001050
                  7.5030000              0.2186440
            S    9   1.00
              99920.0000000             -0.0000200
              14960.0000000             -0.0001580
               3399.0000000             -0.0008240
                958.9000000             -0.0035000
                311.2000000             -0.0122330
                111.7000000             -0.0370170
                 43.3200000             -0.0861130
                 17.8000000             -0.1583810
                  7.5030000             -0.1142880
            S    1   1.00
                  2.3370000              1.0000000
            S    1   1.00
                  0.9001000              1.0000000
            S    1   1.00
                  0.3301000              1.0000000
            S    1   1.00
                  0.1054000              1.0000000
            P    2   1.00
                 99.6800000              0.0065660
                 23.1500000              0.0459790
            P    1   1.00
                  7.1080000              1.0000000
            P    1   1.00
                  2.4410000              1.0000000
            P    1   1.00
                  0.8339000              1.0000000
            P    1   1.00
                  0.2662000              1.0000000
            P    1   1.00
                  0.0817800              1.0000000
            D    1   1.00
                  6.7295000              1.0000000
            D    1   1.00
                  2.0114000              1.0000000
            D    1   1.00
                  0.6012000              1.0000000
            F    1   1.00
                  4.1702000              1.0000000
            F    1   1.00
                  0.9443000              1.0000000
            ****
            -Na     0
            S    16   1.00
            1224000.0000000              0.0000048
             183200.0000000              0.0000372
              41700.0000000              0.0001958
              11810.0000000              0.0008267
               3853.0000000              0.0030025
               1391.0000000              0.0097031
                542.5000000              0.0282337
                224.9000000              0.0732058
                 97.9300000              0.1628970
                 44.3100000              0.2887080
                 20.6500000              0.3468290
                  9.7290000              0.2068650
[...]
                144.6000000             -0.0063255
                 54.4600000             -0.0238813
                 22.5100000             -0.0649238
                  9.7740000             -0.1154440
                  4.3680000             -0.1236510
                  1.9590000              0.0649055
            P    8   1.00
               1890.0000000              0.0004958
                447.8000000              0.0042517
                144.6000000              0.0223277
                 54.4600000              0.0830878
                 22.5100000              0.2171100
                  9.7740000              0.3745070
                  4.3680000              0.3664450
                  1.9590000              0.1292450
            P    1   1.00
                  6.3209000              1.0000000
            P    1   1.00
                  0.8260000              1.0000000
            P    1   1.00
                  0.3297000              1.0000000
            P    1   1.00
                  0.1242000              1.0000000
            P    1   1.00
                  0.0435000              1.0000000
            D    1   1.00
                 12.6860000              1.0000000
            D    1   1.00
                  3.0405000              1.0000000
            D    1   1.00
                  0.8085000              1.0000000
            D    1   1.00
                  0.2864000              1.0000000
            F    1   1.00
                  1.1691000              1.0000000
            F    1   1.00
                  0.4006000              1.0000000
            ****
            
 Initial command:
 /usr/local/apps/g16_b01_avx/g16/l1.exe "/wrk/irikura/Gau-423415.inp" -scrdir="/wrk/irikura/"
 Entering Link 1 = /usr/local/apps/g16_b01_avx/g16/l1.exe PID=    423545.
  
 Copyright (c) 1988-2017, Gaussian, Inc.  All Rights Reserved.
  
 This is part of the Gaussian(R) 16 program.  It is based on
 the Gaussian(R) 09 system (copyright 2009, Gaussian, Inc.),
 the Gaussian(R) 03 system (copyright 2003, Gaussian, Inc.),
 the Gaussian(R) 98 system (copyright 1998, Gaussian, Inc.),
 the Gaussian(R) 94 system (copyright 1995, Gaussian, Inc.),
 the Gaussian 92(TM) system (copyright 1992, Gaussian, Inc.),
 the Gaussian 90(TM) system (copyright 1990, Gaussian, Inc.),
 the Gaussian 88(TM) system (copyright 1988, Gaussian, Inc.),
 the Gaussian 86(TM) system (copyright 1986, Carnegie Mellon
 University), and the Gaussian 82(TM) system (copyright 1983,
 Carnegie Mellon University). Gaussian is a federally registered
 trademark of Gaussian, Inc.
  
 This software contains proprietary and confidential information,
 including trade secrets, belonging to Gaussian, Inc.
  
 This software is provided under written license and may be
 used, copied, transmitted, or stored only in accord with that
 written license.
  
 The following legend is applicable only to US Government
 contracts under FAR:
  
                    RESTRICTED RIGHTS LEGEND
  
 Use, reproduction and disclosure by the US Government is
 subject to restrictions as set forth in subparagraphs (a)
 and (c) of the Commercial Computer Software - Restricted
 Rights clause in FAR 52.227-19.
  
 Gaussian, Inc.
 340 Quinnipiac St., Bldg. 40, Wallingford CT 06492
  
  
 ---------------------------------------------------------------
 Warning -- This program may not be used in any manner that
 competes with the business of Gaussian, Inc. or will provide
 assistance to any competitor of Gaussian, Inc.  The licensee
 of this program is prohibited from giving any competitor of
 Gaussian, Inc. access to this program.  By using this program,
 the user acknowledges that Gaussian, Inc. is engaged in the
 business of creating and licensing software in the field of
 computational chemistry and represents and warrants to the
 licensee that it is not a competitor of Gaussian, Inc. and that
 it will not use this program in any manner prohibited above.
 ---------------------------------------------------------------
  

 Cite this work as:
 Gaussian 16, Revision B.01,
 M. J. Frisch, G. W. Trucks, H. B. Schlegel, G. E. Scuseria, 
 M. A. Robb, J. R. Cheeseman, G. Scalmani, V. Barone, 
 G. A. Petersson, H. Nakatsuji, X. Li, M. Caricato, A. V. Marenich, 
 J. Bloino, B. G. Janesko, R. Gomperts, B. Mennucci, H. P. Hratchian, 
 J. V. Ortiz, A. F. Izmaylov, J. L. Sonnenberg, D. Williams-Young, 
 F. Ding, F. Lipparini, F. Egidi, J. Goings, B. Peng, A. Petrone, 
 T. Henderson, D. Ranasinghe, V. G. Zakrzewski, J. Gao, N. Rega, 
 G. Zheng, W. Liang, M. Hada, M. Ehara, K. Toyota, R. Fukuda, 
 J. Hasegawa, M. Ishida, T. Nakajima, Y. Honda, O. Kitao, H. Nakai, 
 T. Vreven, K. Throssell, J. A. Montgomery, Jr., J. E. Peralta, 
 F. Ogliaro, M. J. Bearpark, J. J. Heyd, E. N. Brothers, K. N. Kudin, 
 V. N. Staroverov, T. A. Keith, R. Kobayashi, J. Normand, 
 K. Raghavachari, A. P. Rendell, J. C. Burant, S. S. Iyengar, 
 J. Tomasi, M. Cossi, J. M. Millam, M. Klene, C. Adamo, R. Cammi, 
 J. W. Ochterski, R. L. Martin, K. Morokuma, O. Farkas, 
 J. B. Foresman, and D. J. Fox, Gaussian, Inc., Wallingford CT, 2016.
 
 ******************************************
 Gaussian 16:  ES64L-G16RevB.01 20-Dec-2017
                29-Sep-2023 
 ******************************************
 %chk=hof.chk
 %mem=500mw
 %nprocs=4
 Will use up to    4 processors via shared memory.
 ---------------------------------
 # rohf/gen geom=check guess=check
 ---------------------------------
 1/29=2,38=1,172=1/1;
 2/12=2,40=1/2;
 3/5=7,11=2,14=-4,25=1,30=1,116=101/1,2,3;
 4/5=1/1;
 5/5=2,38=6/2;
 6/7=2,8=2,9=2,10=2,28=1/1;
 99/5=1,9=1/99;
 ---------------------
 HOF, ROHF/cc-pVTZ-F12
 ---------------------
 Structure from the checkpoint file:  "hof.chk"
 Charge =  0 Multiplicity = 1
 Redundant internal coordinates found in file.  (old form).
 O,0,0.053275,0.707131,0.
 F,0,0.053275,-0.723166,0.
 H,0,-0.905671,0.85145,0.
 Recover connectivity data from disk.
                           ----------------------------
                           !    Current Parameters    !
                           ! (Angstroms and Degrees)  !
 --------------------------                            --------------------------
 ! Name  Definition              Value                                          !
 --------------------------------------------------------------------------------
 ! R1    R(1,2)                  1.4303                                         !
 ! R2    R(1,3)                  0.9697                                         !
 ! A1    A(2,1,3)               98.5586                                         !
 --------------------------------------------------------------------------------
                          Input orientation:                          
 ---------------------------------------------------------------------
 Center     Atomic      Atomic             Coordinates (Angstroms)
 Number     Number       Type             X           Y           Z
 ---------------------------------------------------------------------
      1          8           0        0.053275    0.707131    0.000000
      2          9           0        0.053275   -0.723166    0.000000
      3          1           0       -0.905671    0.851450    0.000000
 ---------------------------------------------------------------------
                    Distance matrix (angstroms):
                    1          2          3
     1  O    0.000000
     2  F    1.430297   0.000000
     3  H    0.969745   1.843636   0.000000
 Stoichiometry    FHO
 Framework group  CS[SG(FHO)]
 Deg. of freedom     3
 Full point group                 CS      NOp   2
 Largest Abelian subgroup         CS      NOp   2
 Largest concise Abelian subgroup C1      NOp   1
                         Standard orientation:                         
 ---------------------------------------------------------------------
 Center     Atomic      Atomic             Coordinates (Angstroms)
 Number     Number       Type             X           Y           Z
 ---------------------------------------------------------------------
      1          8           0        0.053275    0.707131    0.000000
      2          9           0        0.053275   -0.723166    0.000000
      3          1           0       -0.905671    0.851450    0.000000
 ---------------------------------------------------------------------
 Rotational constants (GHZ):         588.5803464          27.1156488          25.9214582
 General basis read from cards:  (5D, 7F)
 There are    98 symmetry adapted cartesian basis functions of A'  symmetry.
 There are    45 symmetry adapted cartesian basis functions of A"  symmetry.
 There are    83 symmetry adapted basis functions of A'  symmetry.
 There are    41 symmetry adapted basis functions of A"  symmetry.
   124 basis functions,   177 primitive gaussians,   143 cartesian basis functions
     9 alpha electrons        9 beta electrons
       nuclear repulsion energy        33.5871129475 Hartrees.
 NAtoms=    3 NActive=    3 NUniq=    3 SFac= 1.00D+00 NAtFMM=   60 NAOKFM=F Big=F
 Integral buffers will be    131072 words long.
 Raffenetti 2 integral format.
 Two-electron integral symmetry is turned on.
 One-electron integrals computed using PRISM.
 NBasis=   124 RedAO= T EigKep=  4.17D-04  NBF=    83    41
 NBsUse=   124 1.00D-06 EigRej= -1.00D+00 NBFU=    83    41
 Initial guess from the checkpoint file:  "hof.chk"
 B after Tr=     0.000000    0.000000    0.000000
         Rot=    1.000000    0.000000    0.000000    0.000000 Ang=   0.00 deg.
 Initial guess orbital symmetries:
       Occupied  (A') (A') (A') (A') (A') (A') (A") (A') (A")
       Virtual   (A') (A') (A') (A') (A') (A") (A') (A') (A") (A')
                 (A") (A') (A') (A') (A") (A') (A') (A") (A') (A')
                 (A") (A') (A") (A') (A') (A") (A') (A') (A") (A')
                 (A") (A') (A') (A") (A') (A') (A") (A') (A') (A")
                 (A') (A") (A') (A') (A") (A') (A') (A") (A') (A")
                 (A') (A') (A") (A") (A") (A') (A') (A') (A') (A")
                 (A') (A') (A") (A') (A') (A') (A') (A') (A') (A')
                 (A') (A') (A') (A') (A') (A') (A') (A') (A') (A')
                 (A') (A') (A') (A') (A') (A') (A') (A') (A') (A')
                 (A') (A') (A') (A') (A') (A') (A') (A') (A") (A")
                 (A") (A") (A") (A") (A") (A") (A") (A") (A") (A")
                 (A") (A") (A") (A") (A")
 Keep R1 and R2 ints in memory in symmetry-blocked form, NReq=45745023.
 Requested convergence on RMS density matrix=1.00D-08 within 128 cycles.
 Requested convergence on MAX density matrix=1.00D-06.
 Requested convergence on             energy=1.00D-06.
 No special actions if energy rises.
 SCF Done:  E(ROHF) =  -174.818784230     A.U. after   12 cycles
            NFock= 12  Conv=0.30D-08     -V/T= 2.0011
 <Sx>= 0.0000 <Sy>= 0.0000 <Sz>= 0.0000 <S**2>=-0.0000 S=-0.0000
 <L.S>=  0.00000000000    
 Annihilation of the first spin contaminant:
 S**2 before annihilation    -0.0000,   after     0.0000

 **********************************************************************

            Population analysis using the SCF Density.

 **********************************************************************

 Orbital symmetries:
       Occupied  (A') (A') (A') (A') (A') (A") (A') (A') (A")
       Virtual   (A') (A') (A') (A") (A') (A') (A') (A") (A') (A')
                 (A") (A') (A') (A') (A') (A") (A') (A') (A") (A')
                 (A') (A") (A") (A') (A') (A") (A') (A') (A') (A')
                 (A") (A') (A") (A') (A") (A') (A') (A") (A') (A')
                 (A') (A") (A') (A") (A") (A') (A') (A') (A') (A")
                 (A') (A") (A') (A") (A') (A') (A") (A") (A') (A")
                 (A') (A') (A') (A") (A') (A") (A') (A") (A') (A')
                 (A') (A") (A') (A') (A') (A') (A") (A") (A') (A')
                 (A") (A') (A') (A') (A") (A') (A') (A") (A") (A')
                 (A") (A') (A') (A") (A') (A") (A') (A') (A") (A')
                 (A') (A') (A") (A') (A") (A') (A') (A") (A') (A')
                 (A') (A") (A') (A') (A')
 The electronic state is 1-A'.
 Alpha  occ. eigenvalues --  -26.34632 -20.69464  -1.64609  -1.31738  -0.77799
 Alpha  occ. eigenvalues --   -0.72421  -0.68678  -0.60875  -0.54656
 Alpha virt. eigenvalues --    0.08465   0.10181   0.13530   0.13828   0.19332
 Alpha virt. eigenvalues --    0.21049   0.21192   0.21722   0.25120   0.40688
 Alpha virt. eigenvalues --    0.46749   0.51067   0.54037   0.59512   0.67835
 Alpha virt. eigenvalues --    0.70230   0.81852   0.87305   0.91347   0.93585
 Alpha virt. eigenvalues --    0.98868   1.11950   1.22906   1.25178   1.32576
 Alpha virt. eigenvalues --    1.36471   1.40408   1.49315   1.58265   1.62738
 Alpha virt. eigenvalues --    1.63284   1.68308   1.75496   1.81536   1.82155
 Alpha virt. eigenvalues --    1.93855   1.96861   2.12568   2.15492   2.28355
 Alpha virt. eigenvalues --    2.43603   2.46607   2.47795   2.53883   2.63719
 Alpha virt. eigenvalues --    2.68066   3.01534   3.03699   3.28217   3.41346
 Alpha virt. eigenvalues --    3.45651   3.46268   3.53654   3.54648   3.57280
 Alpha virt. eigenvalues --    3.59228   3.77880   3.83230   3.83505   3.89577
 Alpha virt. eigenvalues --    4.00166   4.06610   4.19469   4.34628   4.40009
 Alpha virt. eigenvalues --    4.42543   4.59518   4.79167   4.80420   4.85616
 Alpha virt. eigenvalues --    5.06220   5.26516   5.27948   5.59373   5.88361
 Alpha virt. eigenvalues --    6.16952   6.91991   6.94330   7.00521   7.14246
 Alpha virt. eigenvalues --    7.19504   7.46697   7.86067   8.76187   9.71308
 Alpha virt. eigenvalues --   10.07376  10.34058  11.12316  11.15964  11.22341
 Alpha virt. eigenvalues --   11.31012  11.33007  11.39329  11.40801  11.46958
 Alpha virt. eigenvalues --   11.62583  11.64344  11.66058  11.98527  12.07174
 Alpha virt. eigenvalues --   12.09870  12.96695  13.53562  13.56381  13.66280
 Alpha virt. eigenvalues --   13.77130  14.39049  37.33314  37.60493  37.82443
 Alpha virt. eigenvalues --   42.20143  46.82812  46.87889  47.59158  54.08851
          Condensed to atoms (all electrons):
               1          2          3
     1  O    7.962056   0.037589   0.249942
     2  F    0.037589   9.147408  -0.017569
     3  H    0.249942  -0.017569   0.350611
          Atomic-Atomic Spin Densities.
               1          2          3
     1  O    0.000000   0.000000   0.000000
     2  F    0.000000   0.000000   0.000000
     3  H    0.000000   0.000000   0.000000
 Mulliken charges and spin densities:
               1          2
     1  O   -0.249588   0.000000
     2  F   -0.167428   0.000000
     3  H    0.417016   0.000000
 Sum of Mulliken charges =  -0.00000   0.00000
 Mulliken charges and spin densities with hydrogens summed into heavy atoms:
               1          2
     1  O    0.167428   0.000000
     2  F   -0.167428   0.000000
 Electronic spatial extent (au):  <R**2>=             59.1176
 Charge=             -0.0000 electrons
 Dipole moment (field-independent basis, Debye):
    X=             -1.8250    Y=              1.1566    Z=              0.0000  Tot=              2.1607
 Quadrupole moment (field-independent basis, Debye-Ang):
   XX=             -8.7921   YY=            -10.1405   ZZ=            -11.1074
   XY=             -1.7484   XZ=              0.0000   YZ=              0.0000
 Traceless Quadrupole moment (field-independent basis, Debye-Ang):
   XX=              1.2212   YY=             -0.1272   ZZ=             -1.0941
   XY=             -1.7484   XZ=              0.0000   YZ=              0.0000
 Octapole moment (field-independent basis, Debye-Ang**2):
  XXX=             -2.2649  YYY=             -0.7130  ZZZ=              0.0000  XYY=             -1.7198
  XXY=              0.9701  XXZ=              0.0000  XZZ=             -0.1513  YZZ=             -0.9765
  YYZ=              0.0000  XYZ=              0.0000
 Hexadecapole moment (field-independent basis, Debye-Ang**3):
 XXXX=             -7.0830 YYYY=            -36.8208 ZZZZ=             -7.7528 XXXY=             -0.7769
 XXXZ=              0.0000 YYYX=             -0.7074 YYYZ=              0.0000 ZZZX=              0.0000
 ZZZY=              0.0000 XXYY=             -7.0619 XXZZ=             -2.8145 YYZZ=             -8.4931
 XXYZ=              0.0000 YYXZ=              0.0000 ZZXY=              0.2630
 N-N= 3.358711294753D+01 E-N=-4.847473298028D+02  KE= 1.746329961211D+02
 Symmetry A'   KE= 1.630190853578D+02
 Symmetry A"   KE= 1.161391076324D+01
 Symmetry A'   SP= 0.000000000000D+00
 Symmetry A"   SP= 0.000000000000D+00
                          Isotropic Fermi Contact Couplings
        Atom                 a.u.       MegaHertz       Gauss      10(-4) cm-1
     1  O(17)              0.00000      -0.00000      -0.00000      -0.00000
     2  F(19)              0.00000       0.00000       0.00000       0.00000
     3  H(1)               0.00000       0.00000       0.00000       0.00000
 --------------------------------------------------------
       Center         ----  Spin Dipole Couplings  ----
                      3XX-RR        3YY-RR        3ZZ-RR
 --------------------------------------------------------
     1   Atom        0.000000      0.000000      0.000000
     2   Atom        0.000000      0.000000      0.000000
     3   Atom        0.000000      0.000000      0.000000
 --------------------------------------------------------
                        XY            XZ            YZ
 --------------------------------------------------------
     1   Atom        0.000000      0.000000      0.000000
     2   Atom        0.000000      0.000000      0.000000
     3   Atom        0.000000      0.000000      0.000000
 --------------------------------------------------------


 ---------------------------------------------------------------------------------
              Anisotropic Spin Dipole Couplings in Principal Axis System
 ---------------------------------------------------------------------------------

       Atom             a.u.   MegaHertz   Gauss  10(-4) cm-1        Axes

              Baa     0.0000    -0.000    -0.000    -0.000  1.0000  0.0000  0.0000
     1 O(17)  Bbb     0.0000    -0.000    -0.000    -0.000 -0.0000  1.0000  0.0000
              Bcc     0.0000    -0.000    -0.000    -0.000  0.0000  0.0000  1.0000
 
              Baa     0.0000     0.000     0.000     0.000  1.0000  0.0000  0.0000
     2 F(19)  Bbb     0.0000     0.000     0.000     0.000 -0.0000  1.0000  0.0000
              Bcc     0.0000     0.000     0.000     0.000  0.0000  0.0000  1.0000
 
              Baa     0.0000     0.000     0.000     0.000  1.0000  0.0000  0.0000
     3 H(1)   Bbb     0.0000     0.000     0.000     0.000 -0.0000  1.0000  0.0000
              Bcc     0.0000     0.000     0.000     0.000  0.0000  0.0000  1.0000
 

 ---------------------------------------------------------------------------------

 1\1\GINC-GAMBA\SP\ROHF\Gen\F1H1O1\IRIKURA\29-Sep-2023\0\\# rohf/gen ge
 om=check guess=check\\HOF, ROHF/cc-pVTZ-F12\\0,1\O,0,0.053275,0.707131
 ,0.\F,0,0.053275,-0.723166,0.\H,0,-0.905671,0.85145,0.\\Version=ES64L-
 G16RevB.01\State=1-A'\HF=-174.8187842\RMSD=3.000e-09\Dipole=-0.7180202
 ,0.4550368,0.\Quadrupole=0.9079568,-0.094553,-0.8134037,-1.2999155,0.,
 0.\PG=CS [SG(F1H1O1)]\\@


 OLD HORSE! OLD HORSE! WHAT BROUGHT YOU HERE?
 FROM SACARAP' TO PORTLAND PIER
 I'VE CARTED STONE THIS MANY A YEAR;
 TILL, KILLED BY BLOWS AND SORE ABUSE,
 THEY SALTED ME DOWN FOR SAILORS' USE.
 THE SAILORS THEY DO ME DESPISE;
 THEY TURN ME OVER AND DAMN MY EYES;
 CUT OFF MY MEAT, AND SCRAPE MY BONES,
 AND PITCH ME OVER TO DAVY JONES.

    SAILORS' COMPLAINT ABOUT THE BEEF
    SERVED ON SHIPBOARD, CIRCA 1835.
 Job cpu time:       0 days  0 hours  0 minutes 12.0 seconds.
 Elapsed time:       0 days  0 hours  0 minutes  3.1 seconds.
 File lengths (MBytes):  RWF=     10 Int=      0 D2E=      0 Chk=      2 Scr=      1
 Normal termination of Gaussian 16 at Fri Sep 29 23:47:54 2023.
