 Entering Gaussian System, Link 0=g16
 AtFile(1): pcseg2.gbs
            -H     0
            S   4   1.00
                  0.754732D+02           0.427821D-02
                  0.113575D+02           0.328672D-01
                  0.260081D+01           0.159578D+00
                  0.735503D+00           0.500000D+00
            S   1   1.00
                  0.231761D+00           1.0000000
            S   1   1.00
                  0.741675D-01           1.0000000
            P   1   1.00
                  0.160000D+01           1.0000000
            P   1   1.00
                  0.450000D+00           1.0000000
            D   1   1.00
                  0.125000D+01           1.0000000
            ****
            -C     0
            S   7   1.00
                  0.731999D+04           0.695369D-03
                  0.109818D+04           0.537138D-02
                  0.250014D+03           0.274734D-01
                  0.707586D+02           0.105078D+00
                  0.228595D+02           0.291262D+00
                  0.803936D+01           0.500000D+00
                  0.289309D+01           0.362224D+00
            S   2   1.00
                  0.521640D+01          -0.957844D-01
                  0.556124D+00           0.500000D+00
            S   1   1.00
                  0.228813D+00           1.0000000
            S   1   1.00
                  0.936338D-01           1.0000000
            P   4   1.00
                  0.339855D+02           0.818395D-02
                  0.772957D+01           0.586921D-01
                  0.224954D+01           0.222514D+00
                  0.767681D+00           0.500000D+00
            P   1   1.00
                  0.263283D+00           1.0000000
            P   1   1.00
                  0.848744D-01           1.0000000
            D   1   1.00
                  0.140000D+01           1.0000000
            D   1   1.00
                  0.450000D+00           1.0000000
            F   1   1.00
                  0.950000D+00           1.0000000
            ****
            -O     0
            S   7   1.00
                  0.135887D+05           0.665492D-03
                  0.203847D+04           0.514222D-02
                  0.464041D+03           0.263472D-01
                  0.131339D+03           0.101500D+00
                  0.425340D+02           0.285877D+00
                  0.150429D+02           0.500000D+00
                  0.546616D+01           0.368211D+00
            S   2   1.00
                  0.100915D+02          -0.100084D+00
                  0.110429D+01           0.500000D+00
            S   1   1.00
                  0.448082D+00           1.0000000
            S   1   1.00
                  0.175325D+00           1.0000000
            P   4   1.00
                  0.608220D+02           0.908253D-02
                  0.140332D+02           0.645878D-01
                  0.418244D+01           0.241502D+00
                  0.142490D+01           0.500000D+00
            P   1   1.00
                  0.478741D+00           1.0000000
            P   1   1.00
                  0.146257D+00           1.0000000
            D   1   1.00
                  0.220000D+01           1.0000000
            D   1   1.00
                  0.650000D+00           1.0000000
            F   1   1.00
                  0.110000D+01           1.0000000
            ****
            -N     0
            S   7   1.00
                  0.101643D+05           0.682757D-03
                  0.152481D+04           0.527488D-02
                  0.347119D+03           0.270037D-01
                  0.982389D+02           0.103673D+00
                  0.317799D+02           0.289575D+00
                  0.112240D+02           0.500000D+00
                  0.406611D+01           0.364621D+00
            S   2   1.00
                  0.747898D+01          -0.975681D-01
                  0.805040D+00           0.500000D+00
            S   1   1.00
                  0.324626D+00           1.0000000
            S   1   1.00
                  0.128132D+00           1.0000000
            P   4   1.00
                  0.482704D+02           0.829547D-02
                  0.110815D+02           0.596223D-01
                  0.326643D+01           0.227889D+00
                  0.111680D+01           0.500000D+00
            P   1   1.00
                  0.382049D+00           1.0000000
            P   1   1.00
                  0.121222D+00           1.0000000
            D   1   1.00
                  0.180000D+01           1.0000000
            D   1   1.00
                  0.550000D+00           1.0000000
            F   1   1.00
                  0.102000D+01           1.0000000
            ****
            -F     0
            S   7   1.00
                  0.174507D+05           0.655972D-03
                  0.261768D+04           0.506944D-02
                  0.595857D+03           0.259899D-01
                  0.168651D+03           0.100353D+00
                  0.546654D+02           0.284095D+00
                  0.193717D+02           0.500000D+00
                  0.706202D+01           0.370721D+00
            S   2   1.00
                  0.131197D+02          -0.101997D+00
                  0.145046D+01           0.500000D+00
            S   1   1.00
                  0.588255D+00           1.0000000
            S   1   1.00
                  0.227960D+00           1.0000000
            P   4   1.00
                  0.779407D+02           0.931135D-02
                  0.180425D+02           0.663964D-01
                  0.542342D+01           0.246386D+00
                  0.184876D+01           0.500000D+00
            P   1   1.00
                  0.617455D+00           1.0000000
            P   1   1.00
                  0.185496D+00           1.0000000
            D   1   1.00
                  0.280000D+01           1.0000000
            D   1   1.00
                  0.800000D+00           1.0000000
            F   1   1.00
                  0.120000D+01           1.0000000
            ****
            -Cl     0
            S   8   1.00
                  0.154272D+06           0.222473D-03
                  0.231232D+05           0.172590D-02
                  0.526257D+04           0.899286D-02
                  0.148995D+04           0.367724D-01
                  0.485417D+03           0.121446D+00
                  0.174634D+03           0.304148D+00
                  0.672393D+02           0.500000D+00
                  0.265780D+02           0.360252D+00
            S   3   1.00
                  0.131826D+03          -0.531330D-01
                  0.400703D+02          -0.233346D+00
                  0.789448D+01           0.500000D+00
            S   2   1.00
                  0.427711D+01           0.500000D+00
                  0.196233D+01           0.370517D+00
            S   1   1.00
                  0.520793D+00           1.0000000
            S   1   1.00
                  0.181633D+00           1.0000000
            P   7   1.00
                  0.124440D+04           0.988206D-03
                  0.295109D+03           0.829674D-02
                  0.947224D+02           0.430906D-01
                  0.352588D+02           0.148443D+00
                  0.144211D+02           0.344744D+00
                  0.610371D+01           0.500000D+00
                  0.258886D+01           0.348278D+00
            P   2   1.00
                  0.109447D+02          -0.196768D-01
                  0.104413D+01           0.500000D+00
            P   1   1.00
                  0.376184D+00           1.0000000
            P   1   1.00
                  0.120613D+00           1.0000000
            D   1   1.00
                  0.231000D+01           1.0000000
            D   1   1.00
                  0.520000D+00           1.0000000
            F   1   1.00
                  0.720000D+00           1.0000000
            ****
            -S     0
            S   8   1.00
                  0.134700D+06           0.226231D-03
                  0.201904D+05           0.175488D-02
                  0.459528D+04           0.914190D-02
                  0.130109D+04           0.373551D-01
                  0.423902D+03           0.123121D+00
                  0.152485D+03           0.306801D+00
                  0.586925D+02           0.500000D+00
                  0.231461D+02           0.354358D+00
            S   3   1.00
                  0.116327D+03          -0.491772D-01
                  0.352841D+02          -0.215962D+00
                  0.677831D+01           0.500000D+00
            S   2   1.00
                  0.360404D+01           0.500000D+00
                  0.164871D+01           0.366278D+00
            S   1   1.00
                  0.421821D+00           1.0000000
            S   1   1.00
                  0.147554D+00           1.0000000
            P   7   1.00
                  0.104863D+04           0.105273D-02
                  0.248717D+03           0.879338D-02
                  0.797887D+02           0.453358D-01
                  0.296023D+02           0.154476D+00
                  0.120627D+02           0.352366D+00
                  0.507628D+01           0.500000D+00
                  0.213375D+01           0.346429D+00
            P   2   1.00
                  0.928958D+01          -0.185932D-01
                  0.837819D+00           0.500000D+00
            P   1   1.00
                  0.301495D+00           1.0000000
            P   1   1.00
                  0.974740D-01           1.0000000
            D   1   1.00
                  0.210000D+01           1.0000000
            D   1   1.00
                  0.480000D+00           1.0000000
            F   1   1.00
                  0.660000D+00           1.0000000
            ****
            -Br     0
            S    10   1.00
                  0.233625D+07           0.532336D-04
                  0.349961D+06           0.413715D-03
                  0.796444D+05           0.217123D-02
                  0.225555D+05           0.910109D-02
                  0.735546D+04           0.323789D-01
                  0.265352D+04           0.988755D-01
                  0.103517D+04           0.248138D+00
                  0.422205D+03           0.474328D+00
                  0.180035D+03           0.500000D+00
                  0.793308D+02           0.187769D+00
            S    4   1.00
                  0.620834D+03          -0.226511D-01
                  0.190829D+03          -0.109497D+00
                  0.312505D+02           0.500000D+00
                  0.135270D+02           0.492812D+00
            S    2   1.00
                  0.216097D+02          -0.165418D+00
                  0.372566D+01           0.500000D+00
            S    1   1.00
                  0.169770D+01           1.0000000
            S    1   1.00
                  0.489332D+00           1.0000000
            S    1   1.00
                  0.175712D+00           1.0000000
            P    8   1.00
                  0.960829D+04           0.478974D-03
                  0.227618D+04           0.417853D-02
                  0.736723D+03           0.229315D-01
                  0.281579D+03           0.892653D-01
                  0.118395D+03           0.255288D+00
                  0.527481D+02           0.479074D+00
                  0.245098D+02           0.500000D+00
                  0.112009D+02           0.200944D+00
            P    4   1.00
                  0.587849D+02          -0.189674D-01
                  0.918962D+01           0.264104D+00
                  0.413895D+01           0.500000D+00
                  0.184225D+01           0.319316D+00
            P    1   1.00
                  0.713862D+00           1.0000000
            P    1   1.00
                  0.274232D+00           1.0000000
            P    1   1.00
                  0.944411D-01           1.0000000
            D    7   1.00
                  0.398470D+03           0.204066D-02
                  0.118967D+03           0.175171D-01
                  0.450197D+02           0.829708D-01
                  0.190320D+02           0.236284D+00
                  0.855686D+01           0.428468D+00
                  0.382950D+01           0.500000D+00
                  0.166291D+01           0.349360D+00
            D    1   1.00
                  0.672953D+00           1.0000000
            D    1   1.00
                  0.252000D+00           1.0000000
            F    1   1.00
                  0.530000D+00           1.0000000
            ****
            -Si     0
            S    8   1.00
                  0.996133D+05           0.235546D-03
                  0.149311D+05           0.182707D-02
                  0.339820D+04           0.951425D-02
                  0.962140D+03           0.388172D-01
                  0.313430D+03           0.127328D+00
                  0.112683D+03           0.313522D+00
                  0.433372D+02           0.500000D+00
                  0.170029D+02           0.340347D+00
            S    3   1.00
                  0.884208D+02          -0.404451D-01
                  0.266756D+02          -0.178059D+00
                  0.479640D+01           0.500000D+00
            S    2   1.00
                  0.239385D+01           0.500000D+00
                  0.108333D+01           0.338016D+00
            S    1   1.00
                  0.252420D+00           1.0000000
            S    1   1.00
                  0.891210D-01           1.0000000
            P    7   1.00
                  0.709901D+03           0.123028D-02
                  0.168426D+03           0.101366D-01
                  0.539946D+02           0.511840D-01
                  0.198646D+02           0.169967D+00
                  0.801369D+01           0.370717D+00
                  0.331870D+01           0.500000D+00
                  0.136112D+01           0.344128D+00
            P    2   1.00
                  0.622158D+01          -0.166609D-01
                  0.503049D+00           0.500000D+00
            P    1   1.00
                  0.179848D+00           1.0000000
            P    1   1.00
                  0.591912D-01           1.0000000
            D    1   1.00
                  0.168000D+01           1.0000000
            D    1   1.00
                  0.380000D+00           1.0000000
            F    1   1.00
                  0.540000D+00           1.0000000
            ****
            -P     0
            S    8   1.00
                  0.116416D+06           0.230715D-03
                  0.174500D+05           0.178960D-02
                  0.397149D+04           0.932116D-02
                  0.112447D+04           0.380591D-01
                  0.366347D+03           0.125148D+00
                  0.131757D+03           0.310022D+00
                  0.506988D+02           0.500000D+00
                  0.199436D+02           0.347528D+00
            S    3   1.00
                  0.101878D+03          -0.446755D-01
                  0.308249D+02          -0.196376D+00
                  0.573688D+01           0.500000D+00
            S    2   1.00
                  0.296868D+01           0.500000D+00
                  0.135315D+01           0.355098D+00
            S    1   1.00
                  0.332196D+00           1.0000000
            S    1   1.00
                  0.116229D+00           1.0000000
            P    7   1.00
                  0.873928D+03           0.112375D-02
                  0.207298D+03           0.933330D-02
                  0.664628D+02           0.477213D-01
                  0.245665D+02           0.160733D+00
                  0.996820D+01           0.359760D+00
                  0.416536D+01           0.500000D+00
                  0.173022D+01           0.346593D+00
            P    2   1.00
                  0.772530D+01          -0.175718D-01
                  0.657252D+00           0.500000D+00
            P    1   1.00
                  0.239903D+00           1.0000000
            P    1   1.00
                  0.800988D-01           1.0000000
            D    1   1.00
                  0.189000D+01           1.0000000
            D    1   1.00
                  0.430000D+00           1.0000000
            F    1   1.00
                  0.600000D+00           1.0000000
            ****
            
 Initial command:
 /usr/local/apps/g16_b01_avx/g16/l1.exe "/wrk/irikura/Gau-5494.inp" -scrdir="/wrk/irikura/"
 Entering Link 1 = /usr/local/apps/g16_b01_avx/g16/l1.exe PID=      5496.
  
 Copyright (c) 1988-2017, Gaussian, Inc.  All Rights Reserved.
  
 This is part of the Gaussian(R) 16 program.  It is based on
 the Gaussian(R) 09 system (copyright 2009, Gaussian, Inc.),
 the Gaussian(R) 03 system (copyright 2003, Gaussian, Inc.),
 the Gaussian(R) 98 system (copyright 1998, Gaussian, Inc.),
 the Gaussian(R) 94 system (copyright 1995, Gaussian, Inc.),
 the Gaussian 92(TM) system (copyright 1992, Gaussian, Inc.),
 the Gaussian 90(TM) system (copyright 1990, Gaussian, Inc.),
 the Gaussian 88(TM) system (copyright 1988, Gaussian, Inc.),
 the Gaussian 86(TM) system (copyright 1986, Carnegie Mellon
 University), and the Gaussian 82(TM) system (copyright 1983,
 Carnegie Mellon University). Gaussian is a federally registered
 trademark of Gaussian, Inc.
  
 This software contains proprietary and confidential information,
 including trade secrets, belonging to Gaussian, Inc.
  
 This software is provided under written license and may be
 used, copied, transmitted, or stored only in accord with that
 written license.
  
 The following legend is applicable only to US Government
 contracts under FAR:
  
                    RESTRICTED RIGHTS LEGEND
  
 Use, reproduction and disclosure by the US Government is
 subject to restrictions as set forth in subparagraphs (a)
 and (c) of the Commercial Computer Software - Restricted
 Rights clause in FAR 52.227-19.
  
 Gaussian, Inc.
 340 Quinnipiac St., Bldg. 40, Wallingford CT 06492
  
  
 ---------------------------------------------------------------
 Warning -- This program may not be used in any manner that
 competes with the business of Gaussian, Inc. or will provide
 assistance to any competitor of Gaussian, Inc.  The licensee
 of this program is prohibited from giving any competitor of
 Gaussian, Inc. access to this program.  By using this program,
 the user acknowledges that Gaussian, Inc. is engaged in the
 business of creating and licensing software in the field of
 computational chemistry and represents and warrants to the
 licensee that it is not a competitor of Gaussian, Inc. and that
 it will not use this program in any manner prohibited above.
 ---------------------------------------------------------------
  

 Cite this work as:
 Gaussian 16, Revision B.01,
 M. J. Frisch, G. W. Trucks, H. B. Schlegel, G. E. Scuseria, 
 M. A. Robb, J. R. Cheeseman, G. Scalmani, V. Barone, 
 G. A. Petersson, H. Nakatsuji, X. Li, M. Caricato, A. V. Marenich, 
 J. Bloino, B. G. Janesko, R. Gomperts, B. Mennucci, H. P. Hratchian, 
 J. V. Ortiz, A. F. Izmaylov, J. L. Sonnenberg, D. Williams-Young, 
 F. Ding, F. Lipparini, F. Egidi, J. Goings, B. Peng, A. Petrone, 
 T. Henderson, D. Ranasinghe, V. G. Zakrzewski, J. Gao, N. Rega, 
 G. Zheng, W. Liang, M. Hada, M. Ehara, K. Toyota, R. Fukuda, 
 J. Hasegawa, M. Ishida, T. Nakajima, Y. Honda, O. Kitao, H. Nakai, 
 T. Vreven, K. Throssell, J. A. Montgomery, Jr., J. E. Peralta, 
 F. Ogliaro, M. J. Bearpark, J. J. Heyd, E. N. Brothers, K. N. Kudin, 
 V. N. Staroverov, T. A. Keith, R. Kobayashi, J. Normand, 
 K. Raghavachari, A. P. Rendell, J. C. Burant, S. S. Iyengar, 
 J. Tomasi, M. Cossi, J. M. Millam, M. Klene, C. Adamo, R. Cammi, 
 J. W. Ochterski, R. L. Martin, K. Morokuma, O. Farkas, 
 J. B. Foresman, and D. J. Fox, Gaussian, Inc., Wallingford CT, 2016.
 
 ******************************************
 Gaussian 16:  ES64L-G16RevB.01 20-Dec-2017
                23-Jun-2022 
 ******************************************
 %mem=500mw
 %nprocs=2
 Will use up to    2 processors via shared memory.
 --------------------
 # b3lyp/gen opt freq
 --------------------
 1/18=20,19=15,26=3,38=1/1,3;
 2/9=110,12=2,17=6,18=5,40=1/2;
 3/5=7,11=2,25=1,30=1,71=1,74=-5/1,2,3;
 4//1;
 5/5=2,38=5/2;
 6/7=2,8=2,9=2,10=2,28=1/1;
 7//1,2,3,16;
 1/18=20,19=15,26=3/3(2);
 2/9=110/2;
 99//99;
 2/9=110/2;
 3/5=7,6=1,11=2,25=1,30=1,71=1,74=-5,82=7/1,2,3;
 4/5=5,16=3,69=1/1;
 5/5=2,38=5/2;
 7//1,2,3,16;
 1/18=20,19=15,26=3/3(-5);
 2/9=110/2;
 6/7=2,8=2,9=2,10=2,19=2,28=1/1;
 99/9=1/99;
 ------------------
 HOF, B3LYP/pcseg-2
 ------------------
 Symbolic Z-matrix:
 Charge =  0 Multiplicity = 1
 O
 F                    1    r
 H                    1    rh       2    a
       Variables:
  r                     1.5                      
  rh                    1.                       
  a                   109.                       
 

 GradGradGradGradGradGradGradGradGradGradGradGradGradGradGradGradGradGrad
 Berny optimization.
 Initialization pass.
                           ----------------------------
                           !    Initial Parameters    !
                           ! (Angstroms and Degrees)  !
 --------------------------                            --------------------------
 ! Name  Definition              Value          Derivative Info.                !
 --------------------------------------------------------------------------------
 ! R1    R(1,2)                  1.5            estimate D2E/DX2                !
 ! R2    R(1,3)                  1.0            estimate D2E/DX2                !
 ! A1    A(2,1,3)              109.0            estimate D2E/DX2                !
 --------------------------------------------------------------------------------
 Trust Radius=3.00D-01 FncErr=1.00D-07 GrdErr=1.00D-06 EigMax=2.50D+02 EigMin=1.00D-04
 Number of steps in this run=     20 maximum allowed number of steps=    100.
 GradGradGradGradGradGradGradGradGradGradGradGradGradGradGradGradGradGrad

                          Input orientation:                          
 ---------------------------------------------------------------------
 Center     Atomic      Atomic             Coordinates (Angstroms)
 Number     Number       Type             X           Y           Z
 ---------------------------------------------------------------------
      1          8           0        0.000000    0.000000    0.000000
      2          9           0        0.000000    0.000000    1.500000
      3          1           0        0.945519    0.000000   -0.325568
 ---------------------------------------------------------------------
                    Distance matrix (angstroms):
                    1          2          3
     1  O    0.000000
     2  F    1.500000   0.000000
     3  H    1.000000   2.055895   0.000000
 Stoichiometry    FHO
 Framework group  CS[SG(FHO)]
 Deg. of freedom     3
 Full point group                 CS      NOp   2
 Largest Abelian subgroup         CS      NOp   2
 Largest concise Abelian subgroup C1      NOp   1
                         Standard orientation:                         
 ---------------------------------------------------------------------
 Center     Atomic      Atomic             Coordinates (Angstroms)
 Number     Number       Type             X           Y           Z
 ---------------------------------------------------------------------
      1          8           0        0.052529    0.731913    0.000000
      2          9           0        0.052529   -0.768087   -0.000000
      3          1           0       -0.892990    1.057481   -0.000000
 ---------------------------------------------------------------------
 Rotational constants (GHZ):         616.3061229          24.2185080          23.3027960
 General basis read from cards:  (5D, 7F)
 There are    59 symmetry adapted cartesian basis functions of A'  symmetry.
 There are    26 symmetry adapted cartesian basis functions of A"  symmetry.
 There are    50 symmetry adapted basis functions of A'  symmetry.
 There are    24 symmetry adapted basis functions of A"  symmetry.
    74 basis functions,   120 primitive gaussians,    85 cartesian basis functions
     9 alpha electrons        9 beta electrons
       nuclear repulsion energy        31.9504792672 Hartrees.
 NAtoms=    3 NActive=    3 NUniq=    3 SFac= 1.00D+00 NAtFMM=   60 NAOKFM=F Big=F
 Integral buffers will be    131072 words long.
 Raffenetti 2 integral format.
 Two-electron integral symmetry is turned on.
 One-electron integrals computed using PRISM.
 NBasis=    74 RedAO= T EigKep=  5.50D-03  NBF=    50    24
 NBsUse=    74 1.00D-06 EigRej= -1.00D+00 NBFU=    50    24
 ExpMin= 7.42D-02 ExpMax= 1.75D+04 ExpMxC= 5.96D+02 IAcc=3 IRadAn=         5 AccDes= 0.00D+00
 Harris functional with IExCor=  402 and IRadAn=       5 diagonalized for initial guess.
 HarFok:  IExCor=  402 AccDes= 0.00D+00 IRadAn=         5 IDoV= 1 UseB2=F ITyADJ=14
 ICtDFT=  3500011 ScaDFX=  1.000000  1.000000  1.000000  1.000000
 FoFCou: FMM=F IPFlag=           0 FMFlag=      100000 FMFlg1=           0
         NFxFlg=           0 DoJE=T BraDBF=F KetDBF=T FulRan=T
         wScrn=  0.000000 ICntrl=       500 IOpCl=  0 I1Cent=   200000004 NGrid=           0
         NMat0=    1 NMatS0=      1 NMatT0=    0 NMatD0=    1 NMtDS0=    0 NMtDT0=    0
 Petite list used in FoFCou.
 Initial guess orbital symmetries:
       Occupied  (A') (A') (A') (A') (A') (A') (A") (A') (A")
       Virtual   (A') (A') (A') (A') (A') (A") (A') (A') (A") (A')
                 (A") (A') (A') (A') (A") (A') (A') (A") (A') (A')
                 (A") (A') (A") (A') (A') (A") (A') (A') (A") (A')
                 (A') (A") (A') (A") (A') (A') (A") (A') (A') (A")
                 (A') (A") (A') (A') (A") (A') (A') (A") (A') (A")
                 (A') (A') (A") (A") (A') (A") (A') (A') (A') (A')
                 (A") (A') (A") (A') (A')
 The electronic state of the initial guess is 1-A'.
 Keep R1 ints in memory in symmetry-blocked form, NReq=5825885.
 Requested convergence on RMS density matrix=1.00D-08 within 128 cycles.
 Requested convergence on MAX density matrix=1.00D-06.
 Requested convergence on             energy=1.00D-06.
 No special actions if energy rises.
 Integral accuracy reduced to 1.0D-05 until final iterations.
 Initial convergence to 1.0D-05 achieved.  Increase integral accuracy.
 SCF Done:  E(RB3LYP) =  -175.609320732     A.U. after   12 cycles
            NFock= 12  Conv=0.27D-08     -V/T= 2.0035

 **********************************************************************

            Population analysis using the SCF Density.

 **********************************************************************

 Orbital symmetries:
       Occupied  (A') (A') (A') (A') (A') (A') (A") (A') (A")
       Virtual   (A') (A') (A') (A') (A") (A') (A') (A') (A") (A')
                 (A") (A') (A') (A') (A") (A') (A') (A") (A') (A')
                 (A") (A') (A") (A') (A') (A") (A') (A') (A") (A')
                 (A') (A") (A') (A") (A') (A') (A") (A') (A') (A")
                 (A') (A') (A") (A') (A") (A') (A') (A") (A') (A")
                 (A') (A') (A") (A') (A") (A") (A') (A') (A') (A')
                 (A") (A') (A") (A') (A')
 The electronic state is 1-A'.
 Alpha  occ. eigenvalues --  -24.73092 -19.24963  -1.22728  -0.99403  -0.57320
 Alpha  occ. eigenvalues --   -0.49115  -0.47088  -0.40137  -0.34300
 Alpha virt. eigenvalues --   -0.11786  -0.00421   0.25088   0.28337   0.32286
 Alpha virt. eigenvalues --    0.32914   0.43865   0.47690   0.48437   0.52772
 Alpha virt. eigenvalues --    0.77249   0.81924   0.84820   1.10574   1.33059
 Alpha virt. eigenvalues --    1.33090   1.54400   1.67358   1.69144   1.84074
 Alpha virt. eigenvalues --    1.88626   1.91161   2.04700   2.06903   2.25271
 Alpha virt. eigenvalues --    2.29274   2.48994   2.73035   2.81507   2.87288
 Alpha virt. eigenvalues --    3.38568   3.46320   3.56769   3.61417   3.67489
 Alpha virt. eigenvalues --    3.73722   3.85351   3.87853   4.05148   4.22851
 Alpha virt. eigenvalues --    4.28659   4.34061   4.35277   4.39534   4.41695
 Alpha virt. eigenvalues --    4.46154   4.57109   4.69160   4.79818   5.12027
 Alpha virt. eigenvalues --    5.16903   5.79967   5.91270   6.08441   6.09505
 Alpha virt. eigenvalues --    6.20357   6.23204   6.53406   7.02245   7.26834
 Alpha virt. eigenvalues --    7.49687   7.51693   7.79589   7.84420   8.82363
          Condensed to atoms (all electrons):
               1          2          3
     1  O    7.802307   0.023283   0.291451
     2  F    0.023283   9.123500  -0.010012
     3  H    0.291451  -0.010012   0.464748
 Mulliken charges:
               1
     1  O   -0.117041
     2  F   -0.136771
     3  H    0.253813
 Sum of Mulliken charges =   0.00000
 Mulliken charges with hydrogens summed into heavy atoms:
               1
     1  O    0.136771
     2  F   -0.136771
 Electronic spatial extent (au):  <R**2>=             63.8353
 Charge=              0.0000 electrons
 Dipole moment (field-independent basis, Debye):
    X=             -1.7665    Y=              1.3041    Z=             -0.0000  Tot=              2.1957
 Quadrupole moment (field-independent basis, Debye-Ang):
   XX=             -9.3521   YY=             -9.5110   ZZ=            -11.4830
   XY=             -2.0498   XZ=              0.0000   YZ=             -0.0000
 Traceless Quadrupole moment (field-independent basis, Debye-Ang):
   XX=              0.7633   YY=              0.6044   ZZ=             -1.3676
   XY=             -2.0498   XZ=              0.0000   YZ=             -0.0000
 Octapole moment (field-independent basis, Debye-Ang**2):
  XXX=             -1.9533  YYY=              0.0664  ZZZ=             -0.0000  XYY=             -2.3191
  XXY=              1.1025  XXZ=             -0.0000  XZZ=             -0.1749  YZZ=             -1.0648
  YYZ=             -0.0000  XYZ=              0.0000
 Hexadecapole moment (field-independent basis, Debye-Ang**3):
 XXXX=             -8.5080 YYYY=            -40.0053 ZZZZ=             -8.7466 XXXY=             -0.6011
 XXXZ=              0.0000 YYYX=             -1.4698 YYYZ=             -0.0000 ZZZX=             -0.0000
 ZZZY=             -0.0000 XXYY=             -7.5637 XXZZ=             -3.1539 YYZZ=             -9.5923
 XXYZ=             -0.0000 YYXZ=              0.0000 ZZXY=              0.3416
 N-N= 3.195047926724D+01 E-N=-4.819678250681D+02  KE= 1.749930714564D+02
 Symmetry A'   KE= 1.632998721234D+02
 Symmetry A"   KE= 1.169319933297D+01
 Calling FoFJK, ICntrl=      2127 FMM=F ISym2X=1 I1Cent= 0 IOpClX= 0 NMat=1 NMatS=1 NMatT=0.
 ***** Axes restored to original set *****
 -------------------------------------------------------------------
 Center     Atomic                   Forces (Hartrees/Bohr)
 Number     Number              X              Y              Z
 -------------------------------------------------------------------
      1        8          -0.000814023    0.000000000    0.013559929
      2        9           0.015124496    0.000000000   -0.042482068
      3        1          -0.014310473   -0.000000000    0.028922139
 -------------------------------------------------------------------
 Cartesian Forces:  Max     0.042482068 RMS     0.019030066

 GradGradGradGradGradGradGradGradGradGradGradGradGradGradGradGradGradGrad
 Berny optimization.
 FormGI is forming the generalized inverse of G from B-inverse, IUseBI=4.
 Internal  Forces:  Max     0.042872542 RMS     0.037279762
 Search for a local minimum.
 Step number   1 out of a maximum of   20
 All quantities printed in internal units (Hartrees-Bohrs-Radians)
 Mixed Optimization -- RFO/linear search
 Second derivative matrix not updated -- first step.
 The second derivative matrix:
                          R1        R2        A1
           R1           0.32377
           R2           0.00000   0.47688
           A1           0.00000   0.00000   0.16000
 ITU=  0
     Eigenvalues ---    0.16000   0.32377   0.47688
 RFO step:  Lambda=-1.67646176D-02 EMin= 1.60000000D-01
 Linear search not attempted -- first point.
 Iteration  1 RMS(Cart)=  0.17711299 RMS(Int)=  0.02367687
 Iteration  2 RMS(Cart)=  0.03055738 RMS(Int)=  0.00040746
 Iteration  3 RMS(Cart)=  0.00027824 RMS(Int)=  0.00000003
 Iteration  4 RMS(Cart)=  0.00000004 RMS(Int)=  0.00000000
 ClnCor:  largest displacement from symmetrization is 6.25D-17 for atom     1.
 Variable       Old X    -DE/DX   Delta X   Delta X   Delta X     New X
                                 (Linear)    (Quad)   (Total)
    R1        2.83459  -0.04248   0.00000  -0.12475  -0.12475   2.70984
    R2        1.88973  -0.02295   0.00000  -0.04648  -0.04648   1.84324
    A1        1.90241  -0.04287   0.00000  -0.24254  -0.24254   1.65987
         Item               Value     Threshold  Converged?
 Maximum Force            0.042873     0.000450     NO 
 RMS     Force            0.037280     0.000300     NO 
 Maximum Displacement     0.243237     0.001800     NO 
 RMS     Displacement     0.206923     0.001200     NO 
 Predicted change in Energy=-9.023969D-03
 GradGradGradGradGradGradGradGradGradGradGradGradGradGradGradGradGradGrad

                          Input orientation:                          
 ---------------------------------------------------------------------
 Center     Atomic      Atomic             Coordinates (Angstroms)
 Number     Number       Type             X           Y           Z
 ---------------------------------------------------------------------
      1          8           0       -0.045234   -0.000000   -0.028819
      2          9           0        0.075169    0.000000    1.400103
      3          1           0        0.915584    0.000000   -0.196853
 ---------------------------------------------------------------------
                    Distance matrix (angstroms):
                    1          2          3
     1  O    0.000000
     2  F    1.433985   0.000000
     3  H    0.975401   1.804596   0.000000
 Stoichiometry    FHO
 Framework group  CS[SG(FHO)]
 Deg. of freedom     3
 Full point group                 CS      NOp   2
 Largest Abelian subgroup         CS      NOp   2
 Largest concise Abelian subgroup C1      NOp   1
                         Standard orientation:                         
 ---------------------------------------------------------------------
 Center     Atomic      Atomic             Coordinates (Angstroms)
 Number     Number       Type             X           Y           Z
 ---------------------------------------------------------------------
      1          8           0        0.053974    0.712172    0.000000
      2          9           0        0.053974   -0.721813   -0.000000
      3          1           0       -0.917560    0.798939    0.000000
 ---------------------------------------------------------------------
 Rotational constants (GHZ):         570.1943813          27.1292426          25.8970867
 Basis read from rwf:  (5D, 7F)
 There are    59 symmetry adapted cartesian basis functions of A'  symmetry.
 There are    26 symmetry adapted cartesian basis functions of A"  symmetry.
 There are    50 symmetry adapted basis functions of A'  symmetry.
 There are    24 symmetry adapted basis functions of A"  symmetry.
    74 basis functions,   120 primitive gaussians,    85 cartesian basis functions
     9 alpha electrons        9 beta electrons
       nuclear repulsion energy        33.5491677883 Hartrees.
 NAtoms=    3 NActive=    3 NUniq=    3 SFac= 1.00D+00 NAtFMM=   60 NAOKFM=F Big=F
 Integral buffers will be    131072 words long.
 Raffenetti 2 integral format.
 Two-electron integral symmetry is turned on.
 One-electron integrals computed using PRISM.
 NBasis=    74 RedAO= T EigKep=  5.28D-03  NBF=    50    24
 NBsUse=    74 1.00D-06 EigRej= -1.00D+00 NBFU=    50    24
 Initial guess from the checkpoint file:  "/wrk/irikura/Gau-5496.chk"
 B after Tr=     0.000000   -0.000000    0.000000
         Rot=    0.999922   -0.000000   -0.000000   -0.012505 Ang=  -1.43 deg.
 Initial guess orbital symmetries:
       Occupied  (A') (A') (A') (A') (A') (A') (A") (A') (A")
       Virtual   (A') (A') (A') (A') (A") (A') (A') (A') (A") (A')
                 (A") (A') (A') (A') (A") (A') (A') (A") (A') (A')
                 (A") (A') (A") (A') (A') (A") (A') (A') (A") (A')
                 (A') (A") (A') (A") (A') (A') (A") (A') (A') (A")
                 (A') (A') (A") (A') (A") (A') (A') (A") (A') (A")
                 (A') (A') (A") (A') (A") (A") (A') (A') (A') (A')
                 (A") (A') (A") (A') (A')
 ExpMin= 7.42D-02 ExpMax= 1.75D+04 ExpMxC= 5.96D+02 IAcc=3 IRadAn=         5 AccDes= 0.00D+00
 Harris functional with IExCor=  402 and IRadAn=       5 diagonalized for initial guess.
 HarFok:  IExCor=  402 AccDes= 0.00D+00 IRadAn=         5 IDoV= 1 UseB2=F ITyADJ=14
 ICtDFT=  3500011 ScaDFX=  1.000000  1.000000  1.000000  1.000000
 FoFCou: FMM=F IPFlag=           0 FMFlag=      100000 FMFlg1=           0
         NFxFlg=           0 DoJE=T BraDBF=F KetDBF=T FulRan=T
         wScrn=  0.000000 ICntrl=       500 IOpCl=  0 I1Cent=   200000004 NGrid=           0
         NMat0=    1 NMatS0=      1 NMatT0=    0 NMatD0=    1 NMtDS0=    0 NMtDT0=    0
 Petite list used in FoFCou.
 Keep R1 ints in memory in symmetry-blocked form, NReq=5825997.
 Requested convergence on RMS density matrix=1.00D-08 within 128 cycles.
 Requested convergence on MAX density matrix=1.00D-06.
 Requested convergence on             energy=1.00D-06.
 No special actions if energy rises.
 Integral accuracy reduced to 1.0D-05 until final iterations.
 Initial convergence to 1.0D-05 achieved.  Increase integral accuracy.
 SCF Done:  E(RB3LYP) =  -175.616808623     A.U. after   12 cycles
            NFock= 12  Conv=0.30D-08     -V/T= 2.0026
 Calling FoFJK, ICntrl=      2127 FMM=F ISym2X=1 I1Cent= 0 IOpClX= 0 NMat=1 NMatS=1 NMatT=0.
 ***** Axes restored to original set *****
 -------------------------------------------------------------------
 Center     Atomic                   Forces (Hartrees/Bohr)
 Number     Number              X              Y              Z
 -------------------------------------------------------------------
      1        8           0.011368241   -0.000000000    0.003707494
      2        9          -0.004861788    0.000000000    0.002726447
      3        1          -0.006506453    0.000000000   -0.006433941
 -------------------------------------------------------------------
 Cartesian Forces:  Max     0.011368241 RMS     0.005351868

 GradGradGradGradGradGradGradGradGradGradGradGradGradGradGradGradGradGrad
 Berny optimization.
 Using GEDIIS/GDIIS optimizer.
 FormGI is forming the generalized inverse of G from B-inverse, IUseBI=4.
 Internal  Forces:  Max     0.013748194 RMS     0.008610877
 Search for a local minimum.
 Step number   2 out of a maximum of   20
 All quantities printed in internal units (Hartrees-Bohrs-Radians)
 Mixed Optimization -- RFO/linear search
 Update second derivatives using D2CorX and points    1    2
 DE= -7.49D-03 DEPred=-9.02D-03 R= 8.30D-01
 TightC=F SS=  1.41D+00  RLast= 2.77D-01 DXNew= 5.0454D-01 8.3003D-01
 Trust test= 8.30D-01 RLast= 2.77D-01 DXMaxT set to 5.05D-01
 The second derivative matrix:
                          R1        R2        A1
           R1           0.31800
           R2          -0.01859   0.46060
           A1           0.02467  -0.00596   0.22190
 ITU=  1  0
 Use linear search instead of GDIIS.
     Eigenvalues ---    0.21593   0.32125   0.46333
 RFO step:  Lambda=-3.12448700D-04 EMin= 2.15928395D-01
 Quartic linear search produced a step of -0.13859.
 Iteration  1 RMS(Cart)=  0.03611661 RMS(Int)=  0.00070986
 Iteration  2 RMS(Cart)=  0.00064219 RMS(Int)=  0.00000008
 Iteration  3 RMS(Cart)=  0.00000009 RMS(Int)=  0.00000000
 ClnCor:  largest displacement from symmetrization is 7.11D-16 for atom     3.
 Variable       Old X    -DE/DX   Delta X   Delta X   Delta X     New X
                                 (Linear)    (Quad)   (Total)
    R1        2.70984   0.00231   0.01729  -0.01782  -0.00053   2.70930
    R2        1.84324  -0.00530   0.00644  -0.01804  -0.01160   1.83164
    A1        1.65987   0.01375   0.03361   0.01971   0.05333   1.71320
         Item               Value     Threshold  Converged?
 Maximum Force            0.013748     0.000450     NO 
 RMS     Force            0.008611     0.000300     NO 
 Maximum Displacement     0.041334     0.001800     NO 
 RMS     Displacement     0.035780     0.001200     NO 
 Predicted change in Energy=-4.439869D-04
 GradGradGradGradGradGradGradGradGradGradGradGradGradGradGradGradGradGrad

                          Input orientation:                          
 ---------------------------------------------------------------------
 Center     Atomic      Atomic             Coordinates (Angstroms)
 Number     Number       Type             X           Y           Z
 ---------------------------------------------------------------------
      1          8           0       -0.032206   -0.000000   -0.018739
      2          9           0        0.061523    0.000000    1.411896
      3          1           0        0.916202   -0.000000   -0.218726
 ---------------------------------------------------------------------
                    Distance matrix (angstroms):
                    1          2          3
     1  O    0.000000
     2  F    1.433702   0.000000
     3  H    0.969264   1.841034   0.000000
 Stoichiometry    FHO
 Framework group  CS[SG(FHO)]
 Deg. of freedom     3
 Full point group                 CS      NOp   2
 Largest Abelian subgroup         CS      NOp   2
 Largest concise Abelian subgroup C1      NOp   1
                         Standard orientation:                         
 ---------------------------------------------------------------------
 Center     Atomic      Atomic             Coordinates (Angstroms)
 Number     Number       Type             X           Y           Z
 ---------------------------------------------------------------------
      1          8           0        0.053303    0.709209    0.000000
      2          9           0        0.053303   -0.724493   -0.000000
      3          1           0       -0.906150    0.846766    0.000000
 ---------------------------------------------------------------------
 Rotational constants (GHZ):         587.5321795          27.0065805          25.8197467
 Basis read from rwf:  (5D, 7F)
 There are    59 symmetry adapted cartesian basis functions of A'  symmetry.
 There are    26 symmetry adapted cartesian basis functions of A"  symmetry.
 There are    50 symmetry adapted basis functions of A'  symmetry.
 There are    24 symmetry adapted basis functions of A"  symmetry.
    74 basis functions,   120 primitive gaussians,    85 cartesian basis functions
     9 alpha electrons        9 beta electrons
       nuclear repulsion energy        33.5296628145 Hartrees.
 NAtoms=    3 NActive=    3 NUniq=    3 SFac= 1.00D+00 NAtFMM=   60 NAOKFM=F Big=F
 Integral buffers will be    131072 words long.
 Raffenetti 2 integral format.
 Two-electron integral symmetry is turned on.
 One-electron integrals computed using PRISM.
 NBasis=    74 RedAO= T EigKep=  5.19D-03  NBF=    50    24
 NBsUse=    74 1.00D-06 EigRej= -1.00D+00 NBFU=    50    24
 Initial guess from the checkpoint file:  "/wrk/irikura/Gau-5496.chk"
 B after Tr=     0.000000   -0.000000    0.000000
         Rot=    0.999996    0.000000   -0.000000    0.002723 Ang=   0.31 deg.
 Initial guess orbital symmetries:
       Occupied  (A') (A') (A') (A') (A') (A') (A") (A') (A")
       Virtual   (A') (A') (A') (A') (A') (A") (A') (A') (A") (A')
                 (A") (A') (A') (A') (A") (A') (A') (A") (A') (A")
                 (A') (A') (A") (A') (A') (A") (A') (A') (A") (A')
                 (A") (A') (A') (A") (A') (A') (A") (A') (A') (A")
                 (A') (A") (A') (A') (A') (A") (A') (A") (A') (A")
                 (A') (A') (A") (A") (A") (A') (A') (A') (A') (A")
                 (A') (A') (A") (A') (A')
 ExpMin= 7.42D-02 ExpMax= 1.75D+04 ExpMxC= 5.96D+02 IAcc=3 IRadAn=         5 AccDes= 0.00D+00
 Harris functional with IExCor=  402 and IRadAn=       5 diagonalized for initial guess.
 HarFok:  IExCor=  402 AccDes= 0.00D+00 IRadAn=         5 IDoV= 1 UseB2=F ITyADJ=14
 ICtDFT=  3500011 ScaDFX=  1.000000  1.000000  1.000000  1.000000
 FoFCou: FMM=F IPFlag=           0 FMFlag=      100000 FMFlg1=           0
         NFxFlg=           0 DoJE=T BraDBF=F KetDBF=T FulRan=T
         wScrn=  0.000000 ICntrl=       500 IOpCl=  0 I1Cent=   200000004 NGrid=           0
         NMat0=    1 NMatS0=      1 NMatT0=    0 NMatD0=    1 NMtDS0=    0 NMtDT0=    0
 Petite list used in FoFCou.
 Keep R1 ints in memory in symmetry-blocked form, NReq=5825997.
 Requested convergence on RMS density matrix=1.00D-08 within 128 cycles.
 Requested convergence on MAX density matrix=1.00D-06.
 Requested convergence on             energy=1.00D-06.
 No special actions if energy rises.
 Integral accuracy reduced to 1.0D-05 until final iterations.
 Initial convergence to 1.0D-05 achieved.  Increase integral accuracy.
 SCF Done:  E(RB3LYP) =  -175.617232317     A.U. after   10 cycles
            NFock= 10  Conv=0.92D-08     -V/T= 2.0026
 Calling FoFJK, ICntrl=      2127 FMM=F ISym2X=1 I1Cent= 0 IOpClX= 0 NMat=1 NMatS=1 NMatT=0.
 ***** Axes restored to original set *****
 -------------------------------------------------------------------
 Center     Atomic                   Forces (Hartrees/Bohr)
 Number     Number              X              Y              Z
 -------------------------------------------------------------------
      1        8           0.000055233    0.000000000    0.002390817
      2        9          -0.000541688   -0.000000000   -0.001632718
      3        1           0.000486455   -0.000000000   -0.000758099
 -------------------------------------------------------------------
 Cartesian Forces:  Max     0.002390817 RMS     0.001026840

 GradGradGradGradGradGradGradGradGradGradGradGradGradGradGradGradGradGrad
 Berny optimization.
 Using GEDIIS/GDIIS optimizer.
 FormGI is forming the generalized inverse of G from B-inverse, IUseBI=4.
 Internal  Forces:  Max     0.001664605 RMS     0.001231716
 Search for a local minimum.
 Step number   3 out of a maximum of   20
 All quantities printed in internal units (Hartrees-Bohrs-Radians)
 Mixed Optimization -- RFO/linear search
 Update second derivatives using D2CorX and points    1    2    3
 DE= -4.24D-04 DEPred=-4.44D-04 R= 9.54D-01
 TightC=F SS=  1.41D+00  RLast= 5.46D-02 DXNew= 8.4853D-01 1.6373D-01
 Trust test= 9.54D-01 RLast= 5.46D-02 DXMaxT set to 5.05D-01
 The second derivative matrix:
                          R1        R2        A1
           R1           0.32662
           R2          -0.04341   0.46567
           A1           0.06834  -0.01041   0.23419
 ITU=  1  1  0
 Use linear search instead of GDIIS.
     Eigenvalues ---    0.19742   0.34724   0.48182
 RFO step:  Lambda=-1.51838339D-05 EMin= 1.97423068D-01
 Quartic linear search produced a step of  0.07701.
 Iteration  1 RMS(Cart)=  0.00452828 RMS(Int)=  0.00001516
 Iteration  2 RMS(Cart)=  0.00001191 RMS(Int)=  0.00000000
 Iteration  3 RMS(Cart)=  0.00000000 RMS(Int)=  0.00000000
 ClnCor:  largest displacement from symmetrization is 4.00D-16 for atom     3.
 Variable       Old X    -DE/DX   Delta X   Delta X   Delta X     New X
                                 (Linear)    (Quad)   (Total)
    R1        2.70930  -0.00166  -0.00004  -0.00639  -0.00644   2.70287
    R2        1.83164   0.00063  -0.00089   0.00180   0.00091   1.83255
    A1        1.71320   0.00117   0.00411   0.00287   0.00698   1.72017
         Item               Value     Threshold  Converged?
 Maximum Force            0.001665     0.000450     NO 
 RMS     Force            0.001232     0.000300     NO 
 Maximum Displacement     0.005285     0.001800     NO 
 RMS     Displacement     0.004525     0.001200     NO 
 Predicted change in Energy=-9.709794D-06
 GradGradGradGradGradGradGradGradGradGradGradGradGradGradGradGradGradGrad

                          Input orientation:                          
 ---------------------------------------------------------------------
 Center     Atomic      Atomic             Coordinates (Angstroms)
 Number     Number       Type             X           Y           Z
 ---------------------------------------------------------------------
      1          8           0       -0.031141   -0.000000   -0.015942
      2          9           0        0.060000    0.000000    1.411448
      3          1           0        0.916659   -0.000000   -0.221074
 ---------------------------------------------------------------------
                    Distance matrix (angstroms):
                    1          2          3
     1  O    0.000000
     2  F    1.430297   0.000000
     3  H    0.969745   1.843636   0.000000
 Stoichiometry    FHO
 Framework group  CS[SG(FHO)]
 Deg. of freedom     3
 Full point group                 CS      NOp   2
 Largest Abelian subgroup         CS      NOp   2
 Largest concise Abelian subgroup C1      NOp   1
                         Standard orientation:                         
 ---------------------------------------------------------------------
 Center     Atomic      Atomic             Coordinates (Angstroms)
 Number     Number       Type             X           Y           Z
 ---------------------------------------------------------------------
      1          8           0        0.053275    0.707131   -0.000000
      2          9           0        0.053275   -0.723166    0.000000
      3          1           0       -0.905671    0.851450    0.000000
 ---------------------------------------------------------------------
 Rotational constants (GHZ):         588.5809617          27.1156600          25.9214695
 Basis read from rwf:  (5D, 7F)
 There are    59 symmetry adapted cartesian basis functions of A'  symmetry.
 There are    26 symmetry adapted cartesian basis functions of A"  symmetry.
 There are    50 symmetry adapted basis functions of A'  symmetry.
 There are    24 symmetry adapted basis functions of A"  symmetry.
    74 basis functions,   120 primitive gaussians,    85 cartesian basis functions
     9 alpha electrons        9 beta electrons
       nuclear repulsion energy        33.5871208200 Hartrees.
 NAtoms=    3 NActive=    3 NUniq=    3 SFac= 1.00D+00 NAtFMM=   60 NAOKFM=F Big=F
 Integral buffers will be    131072 words long.
 Raffenetti 2 integral format.
 Two-electron integral symmetry is turned on.
 One-electron integrals computed using PRISM.
 NBasis=    74 RedAO= T EigKep=  5.18D-03  NBF=    50    24
 NBsUse=    74 1.00D-06 EigRej= -1.00D+00 NBFU=    50    24
 Initial guess from the checkpoint file:  "/wrk/irikura/Gau-5496.chk"
 B after Tr=    -0.000000    0.000000    0.000000
         Rot=    1.000000   -0.000000    0.000000    0.000239 Ang=   0.03 deg.
 Initial guess orbital symmetries:
       Occupied  (A') (A') (A') (A') (A') (A') (A") (A') (A")
       Virtual   (A') (A') (A') (A') (A') (A") (A') (A') (A") (A')
                 (A") (A') (A') (A') (A") (A') (A') (A") (A') (A')
                 (A") (A') (A") (A') (A') (A") (A') (A') (A") (A')
                 (A") (A') (A') (A") (A') (A') (A") (A') (A') (A")
                 (A') (A") (A') (A') (A") (A') (A') (A") (A') (A")
                 (A') (A') (A") (A") (A") (A') (A') (A') (A') (A")
                 (A') (A') (A") (A') (A')
 Keep R1 ints in memory in symmetry-blocked form, NReq=5825997.
 Requested convergence on RMS density matrix=1.00D-08 within 128 cycles.
 Requested convergence on MAX density matrix=1.00D-06.
 Requested convergence on             energy=1.00D-06.
 No special actions if energy rises.
 SCF Done:  E(RB3LYP) =  -175.617242168     A.U. after    8 cycles
            NFock=  8  Conv=0.19D-08     -V/T= 2.0026
 Calling FoFJK, ICntrl=      2127 FMM=F ISym2X=1 I1Cent= 0 IOpClX= 0 NMat=1 NMatS=1 NMatT=0.
 ***** Axes restored to original set *****
 -------------------------------------------------------------------
 Center     Atomic                   Forces (Hartrees/Bohr)
 Number     Number              X              Y              Z
 -------------------------------------------------------------------
      1        8          -0.000160565    0.000000000    0.000031557
      2        9          -0.000003723    0.000000000    0.000010344
      3        1           0.000164288   -0.000000000   -0.000041901
 -------------------------------------------------------------------
 Cartesian Forces:  Max     0.000164288 RMS     0.000078630

 GradGradGradGradGradGradGradGradGradGradGradGradGradGradGradGradGradGrad
 Berny optimization.
 Using GEDIIS/GDIIS optimizer.
 FormGI is forming the generalized inverse of G from B-inverse, IUseBI=4.
 Internal  Forces:  Max     0.000169380 RMS     0.000098191
 Search for a local minimum.
 Step number   4 out of a maximum of   20
 All quantities printed in internal units (Hartrees-Bohrs-Radians)
 Mixed Optimization -- En-DIIS/RFO-DIIS
 Update second derivatives using D2CorX and points    1    2    3    4
 DE= -9.85D-06 DEPred=-9.71D-06 R= 1.01D+00
 TightC=F SS=  1.41D+00  RLast= 9.54D-03 DXNew= 8.4853D-01 2.8608D-02
 Trust test= 1.01D+00 RLast= 9.54D-03 DXMaxT set to 5.05D-01
 The second derivative matrix:
                          R1        R2        A1
           R1           0.32009
           R2          -0.03265   0.47300
           A1           0.05947  -0.02540   0.22490
 ITU=  1  1  1  0
 Use linear search instead of GDIIS.
     Eigenvalues ---    0.19604   0.33671   0.48524
 RFO step:  Lambda=-6.19771021D-08 EMin= 1.96036917D-01
 Quartic linear search produced a step of  0.00870.
 Iteration  1 RMS(Cart)=  0.00019202 RMS(Int)=  0.00000001
 Iteration  2 RMS(Cart)=  0.00000001 RMS(Int)=  0.00000000
 ClnCor:  largest displacement from symmetrization is 1.29D-15 for atom     3.
 Variable       Old X    -DE/DX   Delta X   Delta X   Delta X     New X
                                 (Linear)    (Quad)   (Total)
    R1        2.70287   0.00001  -0.00006   0.00011   0.00005   2.70292
    R2        1.83255   0.00017   0.00001   0.00036   0.00037   1.83292
    A1        1.72017   0.00001   0.00006   0.00002   0.00008   1.72025
         Item               Value     Threshold  Converged?
 Maximum Force            0.000169     0.000450     YES
 RMS     Force            0.000098     0.000300     YES
 Maximum Displacement     0.000202     0.001800     YES
 RMS     Displacement     0.000192     0.001200     YES
 Predicted change in Energy=-3.172599D-08
 Optimization completed.
    -- Stationary point found.
                           ----------------------------
                           !   Optimized Parameters   !
                           ! (Angstroms and Degrees)  !
 --------------------------                            --------------------------
 ! Name  Definition              Value          Derivative Info.                !
 --------------------------------------------------------------------------------
 ! R1    R(1,2)                  1.4303         -DE/DX =    0.0                 !
 ! R2    R(1,3)                  0.9697         -DE/DX =    0.0002              !
 ! A1    A(2,1,3)               98.5587         -DE/DX =    0.0                 !
 --------------------------------------------------------------------------------
 GradGradGradGradGradGradGradGradGradGradGradGradGradGradGradGradGradGrad

                          Input orientation:                          
 ---------------------------------------------------------------------
 Center     Atomic      Atomic             Coordinates (Angstroms)
 Number     Number       Type             X           Y           Z
 ---------------------------------------------------------------------
      1          8           0       -0.031141   -0.000000   -0.015942
      2          9           0        0.060000    0.000000    1.411448
      3          1           0        0.916659   -0.000000   -0.221074
 ---------------------------------------------------------------------
                    Distance matrix (angstroms):
                    1          2          3
     1  O    0.000000
     2  F    1.430297   0.000000
     3  H    0.969745   1.843636   0.000000
 Stoichiometry    FHO
 Framework group  CS[SG(FHO)]
 Deg. of freedom     3
 Full point group                 CS      NOp   2
 Largest Abelian subgroup         CS      NOp   2
 Largest concise Abelian subgroup C1      NOp   1
                         Standard orientation:                         
 ---------------------------------------------------------------------
 Center     Atomic      Atomic             Coordinates (Angstroms)
 Number     Number       Type             X           Y           Z
 ---------------------------------------------------------------------
      1          8           0        0.053275    0.707131    0.000000
      2          9           0        0.053275   -0.723166    0.000000
      3          1           0       -0.905671    0.851450    0.000000
 ---------------------------------------------------------------------
 Rotational constants (GHZ):         588.5809617          27.1156600          25.9214695

 **********************************************************************

            Population analysis using the SCF Density.

 **********************************************************************

 Orbital symmetries:
       Occupied  (A') (A') (A') (A') (A') (A') (A") (A') (A")
       Virtual   (A') (A') (A') (A') (A') (A") (A') (A') (A") (A')
                 (A") (A') (A') (A') (A") (A') (A') (A") (A') (A')
                 (A") (A') (A") (A') (A') (A") (A') (A') (A") (A')
                 (A") (A') (A') (A") (A') (A') (A") (A') (A') (A")
                 (A') (A") (A') (A') (A") (A') (A') (A") (A') (A")
                 (A') (A') (A") (A") (A") (A') (A') (A') (A') (A")
                 (A') (A') (A") (A') (A')
 The electronic state is 1-A'.
 Alpha  occ. eigenvalues --  -24.72905 -19.24444  -1.25835  -0.98770  -0.58143
 Alpha  occ. eigenvalues --   -0.51196  -0.48513  -0.39998  -0.33437
 Alpha virt. eigenvalues --   -0.07290   0.00092   0.26408   0.28415   0.31858
 Alpha virt. eigenvalues --    0.32232   0.44102   0.47608   0.48518   0.52507
 Alpha virt. eigenvalues --    0.76859   0.80319   0.87088   1.09243   1.33295
 Alpha virt. eigenvalues --    1.36104   1.59256   1.69038   1.71460   1.88174
 Alpha virt. eigenvalues --    1.88886   1.94099   2.06403   2.14884   2.25042
 Alpha virt. eigenvalues --    2.33795   2.50523   2.75065   2.82974   2.90424
 Alpha virt. eigenvalues --    3.43144   3.47033   3.54464   3.63246   3.69490
 Alpha virt. eigenvalues --    3.78042   3.88779   3.95427   4.13892   4.24448
 Alpha virt. eigenvalues --    4.26460   4.33328   4.37735   4.40348   4.46128
 Alpha virt. eigenvalues --    4.47159   4.72766   4.81230   4.86116   5.27188
 Alpha virt. eigenvalues --    5.32492   5.98423   6.01467   6.14272   6.21194
 Alpha virt. eigenvalues --    6.24877   6.39854   6.66734   7.10915   7.50232
 Alpha virt. eigenvalues --    7.51556   7.61151   7.86556   7.92719   9.16032
          Condensed to atoms (all electrons):
               1          2          3
     1  O    7.783238  -0.006466   0.310419
     2  F   -0.006466   9.160568  -0.015457
     3  H    0.310419  -0.015457   0.479202
 Mulliken charges:
               1
     1  O   -0.087191
     2  F   -0.138645
     3  H    0.225836
 Sum of Mulliken charges =  -0.00000
 Mulliken charges with hydrogens summed into heavy atoms:
               1
     1  O    0.138645
     2  F   -0.138645
 Electronic spatial extent (au):  <R**2>=             59.6912
 Charge=              0.0000 electrons
 Dipole moment (field-independent basis, Debye):
    X=             -1.7649    Y=              0.9434    Z=              0.0000  Tot=              2.0012
 Quadrupole moment (field-independent basis, Debye-Ang):
   XX=             -9.1436   YY=            -10.2939   ZZ=            -11.3740
   XY=             -1.6721   XZ=              0.0000   YZ=              0.0000
 Traceless Quadrupole moment (field-independent basis, Debye-Ang):
   XX=              1.1269   YY=             -0.0234   ZZ=             -1.1035
   XY=             -1.6721   XZ=              0.0000   YZ=              0.0000
 Octapole moment (field-independent basis, Debye-Ang**2):
  XXX=             -2.0885  YYY=             -1.0024  ZZZ=             -0.0000  XYY=             -1.6738
  XXY=              0.8349  XXZ=             -0.0000  XZZ=             -0.1942  YZZ=             -1.0372
  YYZ=             -0.0000  XYZ=              0.0000
 Hexadecapole moment (field-independent basis, Debye-Ang**3):
 XXXX=             -8.0915 YYYY=            -37.6979 ZZZZ=             -8.5823 XXXY=             -0.5650
 XXXZ=              0.0000 YYYX=             -0.6266 YYYZ=              0.0000 ZZZX=              0.0000
 ZZZY=              0.0000 XXYY=             -7.4753 XXZZ=             -3.0783 YYZZ=             -8.8392
 XXYZ=             -0.0000 YYXZ=              0.0000 ZZXY=              0.2502
 N-N= 3.358712082000D+01 E-N=-4.853032306848D+02  KE= 1.751672608969D+02
 Symmetry A'   KE= 1.634436438249D+02
 Symmetry A"   KE= 1.172361707205D+01
 B after Tr=     0.030429    0.000000    0.081727
         Rot=    0.999752   -0.000000    0.022291   -0.000000 Ang=   2.55 deg.
 Final structure in terms of initial Z-matrix:
 O
 F,1,r
 H,1,rh,2,a
      Variables:
 r=1.43029664
 rh=0.96974469
 a=98.55869503
 1\1\GINC-GAMBA\FOpt\RB3LYP\Gen\F1H1O1\IRIKURA\23-Jun-2022\0\\# b3lyp/g
 en opt freq\\HOF, B3LYP/pcseg-2\\0,1\O,-0.0311409623,0.,-0.0159419059\
 F,0.0600001482,0.,1.4114479461\H,0.9166593897,0.,-0.2210741948\\Versio
 n=ES64L-G16RevB.01\State=1-A'\HF=-175.6172422\RMSD=1.922e-09\RMSF=7.86
 3e-05\Dipole=0.6692873,0.,-0.4146507\Quadrupole=0.6762612,-0.8204378,0
 .1441766,0.,-1.2874343,0.\PG=CS [SG(F1H1O1)]\\@


 SUCCESS IS COUNTED SWEETEST
 BY THOSE WHO NE'ER SUCCEED.
 TO COMPREHEND NECTAR
 REQUIRES SOREST NEED.
           EMILY DICKINSON
 Job cpu time:       0 days  0 hours  0 minutes 32.4 seconds.
 Elapsed time:       0 days  0 hours  0 minutes 16.6 seconds.
 File lengths (MBytes):  RWF=      6 Int=      0 D2E=      0 Chk=      2 Scr=      1
 Normal termination of Gaussian 16 at Thu Jun 23 09:27:02 2022.
 Link1:  Proceeding to internal job step number  2.
 ------------------------------------------------------------------
 #N Geom=AllCheck Guess=TCheck SCRF=Check GenChk RB3LYP/ChkBas Freq
 ------------------------------------------------------------------
 1/10=4,29=7,30=1,38=1,40=1/1,3;
 2/12=2,40=1/2;
 3/5=7,6=2,11=2,14=-4,25=1,30=1,67=1,70=2,71=2,74=-5,82=7,116=1,140=1/1,2,3;
 4/5=101/1;
 5/5=2,38=6,98=1/2;
 8/6=4,10=90,11=11/1;
 11/6=1,8=1,9=11,15=111,16=1/1,2,10;
 10/6=1/2;
 6/7=2,8=2,9=2,10=2,28=1/1;
 7/8=1,10=1,25=1/1,2,3,16;
 1/10=4,30=1/3;
 99//99;
 Structure from the checkpoint file:  "/wrk/irikura/Gau-5496.chk"
 ------------------
 HOF, B3LYP/pcseg-2
 ------------------
 Charge =  0 Multiplicity = 1
 Redundant internal coordinates found in file.  (old form).
 O,0,-0.0311409623,0.,-0.0159419059
 F,0,0.0600001482,0.,1.4114479461
 H,0,0.9166593897,0.,-0.2210741948
 Recover connectivity data from disk.

 GradGradGradGradGradGradGradGradGradGradGradGradGradGradGradGradGradGrad
 Berny optimization.
 Initialization pass.
                           ----------------------------
                           !    Initial Parameters    !
                           ! (Angstroms and Degrees)  !
 --------------------------                            --------------------------
 ! Name  Definition              Value          Derivative Info.                !
 --------------------------------------------------------------------------------
 ! R1    R(1,2)                  1.4303         calculate D2E/DX2 analytically  !
 ! R2    R(1,3)                  0.9697         calculate D2E/DX2 analytically  !
 ! A1    A(2,1,3)               98.5587         calculate D2E/DX2 analytically  !
 --------------------------------------------------------------------------------
 Trust Radius=3.00D-01 FncErr=1.00D-07 GrdErr=1.00D-07 EigMax=2.50D+02 EigMin=1.00D-04
 Number of steps in this run=      2 maximum allowed number of steps=      2.
 GradGradGradGradGradGradGradGradGradGradGradGradGradGradGradGradGradGrad

                          Input orientation:                          
 ---------------------------------------------------------------------
 Center     Atomic      Atomic             Coordinates (Angstroms)
 Number     Number       Type             X           Y           Z
 ---------------------------------------------------------------------
      1          8           0       -0.031141   -0.000000   -0.015942
      2          9           0        0.060000    0.000000    1.411448
      3          1           0        0.916659   -0.000000   -0.221074
 ---------------------------------------------------------------------
                    Distance matrix (angstroms):
                    1          2          3
     1  O    0.000000
     2  F    1.430297   0.000000
     3  H    0.969745   1.843636   0.000000
 Stoichiometry    FHO
 Framework group  CS[SG(FHO)]
 Deg. of freedom     3
 Full point group                 CS      NOp   2
 Largest Abelian subgroup         CS      NOp   2
 Largest concise Abelian subgroup C1      NOp   1
                         Standard orientation:                         
 ---------------------------------------------------------------------
 Center     Atomic      Atomic             Coordinates (Angstroms)
 Number     Number       Type             X           Y           Z
 ---------------------------------------------------------------------
      1          8           0        0.053275    0.707131   -0.000000
      2          9           0        0.053275   -0.723166    0.000000
      3          1           0       -0.905671    0.851450    0.000000
 ---------------------------------------------------------------------
 Rotational constants (GHZ):         588.5809617          27.1156600          25.9214695
 Basis read from chk: "/wrk/irikura/Gau-5496.chk" (5D, 7F)
 There are    59 symmetry adapted cartesian basis functions of A'  symmetry.
 There are    26 symmetry adapted cartesian basis functions of A"  symmetry.
 There are    50 symmetry adapted basis functions of A'  symmetry.
 There are    24 symmetry adapted basis functions of A"  symmetry.
    74 basis functions,   120 primitive gaussians,    85 cartesian basis functions
     9 alpha electrons        9 beta electrons
       nuclear repulsion energy        33.5871208200 Hartrees.
 NAtoms=    3 NActive=    3 NUniq=    3 SFac= 1.00D+00 NAtFMM=   60 NAOKFM=F Big=F
 Integral buffers will be    131072 words long.
 Raffenetti 2 integral format.
 Two-electron integral symmetry is turned on.
 One-electron integrals computed using PRISM.
 NBasis=    74 RedAO= T EigKep=  5.18D-03  NBF=    50    24
 NBsUse=    74 1.00D-06 EigRej= -1.00D+00 NBFU=    50    24
 Initial guess from the checkpoint file:  "/wrk/irikura/Gau-5496.chk"
 B after Tr=     0.000000   -0.000000    0.000000
         Rot=    1.000000   -0.000000    0.000000   -0.000000 Ang=   0.00 deg.
 Initial guess orbital symmetries:
       Occupied  (A') (A') (A') (A') (A') (A') (A") (A') (A")
       Virtual   (A') (A') (A') (A') (A') (A") (A') (A') (A") (A')
                 (A") (A') (A') (A') (A") (A') (A') (A") (A') (A')
                 (A") (A') (A") (A') (A') (A") (A') (A') (A") (A')
                 (A") (A') (A') (A") (A') (A') (A") (A') (A') (A")
                 (A') (A") (A') (A') (A") (A') (A') (A") (A') (A")
                 (A') (A') (A") (A") (A") (A') (A') (A') (A') (A")
                 (A') (A') (A") (A') (A')
 Keep R1 ints in memory in symmetry-blocked form, NReq=5825997.
 Requested convergence on RMS density matrix=1.00D-08 within 128 cycles.
 Requested convergence on MAX density matrix=1.00D-06.
 Requested convergence on             energy=1.00D-06.
 No special actions if energy rises.
 SCF Done:  E(RB3LYP) =  -175.617242168     A.U. after    1 cycles
            NFock=  1  Conv=0.33D-09     -V/T= 2.0026
 DoSCS=F DFT=T ScalE2(SS,OS)=  1.000000  1.000000
 Range of M.O.s used for correlation:     1    74
 NBasis=    74 NAE=     9 NBE=     9 NFC=     0 NFV=     0
 NROrb=     74 NOA=     9 NOB=     9 NVA=    65 NVB=    65
 Symmetrizing basis deriv contribution to polar:
 IMax=3 JMax=2 DiffMx= 0.00D+00
 G2DrvN: will do     4 centers at a time, making    1 passes.
 Calling FoFCou, ICntrl=  3107 FMM=F I1Cent=   0 AccDes= 0.00D+00.
 End of G2Drv F.D. properties file   721 does not exist.
 End of G2Drv F.D. properties file   722 does not exist.
 End of G2Drv F.D. properties file   788 does not exist.
          IDoAtm=111
          Differentiating once with respect to electric field.
                with respect to dipole field.
          Differentiating once with respect to nuclear coordinates.
 Keep R1 ints in memory in symmetry-blocked form, NReq=5827482.
          There are    12 degrees of freedom in the 1st order CPHF.  IDoFFX=6 NUNeed=     3.
      9 vectors produced by pass  0 Test12= 4.87D-15 8.33D-09 XBig12= 9.91D+00 2.19D+00.
 AX will form     9 AO Fock derivatives at one time.
      9 vectors produced by pass  1 Test12= 4.87D-15 8.33D-09 XBig12= 4.05D+00 8.15D-01.
      9 vectors produced by pass  2 Test12= 4.87D-15 8.33D-09 XBig12= 1.21D-01 1.01D-01.
      9 vectors produced by pass  3 Test12= 4.87D-15 8.33D-09 XBig12= 5.20D-04 8.72D-03.
      9 vectors produced by pass  4 Test12= 4.87D-15 8.33D-09 XBig12= 1.14D-06 3.17D-04.
      9 vectors produced by pass  5 Test12= 4.87D-15 8.33D-09 XBig12= 7.62D-10 6.91D-06.
      3 vectors produced by pass  6 Test12= 4.87D-15 8.33D-09 XBig12= 8.48D-13 2.94D-07.
 InvSVY:  IOpt=1 It=  1 EMax= 6.66D-16
 Solved reduced A of dimension    57 with     9 vectors.
 Isotropic polarizability for W=    0.000000        9.46 Bohr**3.
 End of Minotr F.D. properties file   721 does not exist.
 End of Minotr F.D. properties file   722 does not exist.
 End of Minotr F.D. properties file   788 does not exist.

 **********************************************************************

            Population analysis using the SCF Density.

 **********************************************************************

 Orbital symmetries:
       Occupied  (A') (A') (A') (A') (A') (A') (A") (A') (A")
       Virtual   (A') (A') (A') (A') (A') (A") (A') (A') (A") (A')
                 (A") (A') (A') (A') (A") (A') (A') (A") (A') (A')
                 (A") (A') (A") (A') (A') (A") (A') (A') (A") (A')
                 (A") (A') (A') (A") (A') (A') (A") (A') (A') (A")
                 (A') (A") (A') (A') (A") (A') (A') (A") (A') (A")
                 (A') (A') (A") (A") (A") (A') (A') (A') (A') (A")
                 (A') (A') (A") (A') (A')
 The electronic state is 1-A'.
 Alpha  occ. eigenvalues --  -24.72905 -19.24444  -1.25835  -0.98770  -0.58143
 Alpha  occ. eigenvalues --   -0.51196  -0.48513  -0.39998  -0.33437
 Alpha virt. eigenvalues --   -0.07290   0.00092   0.26408   0.28415   0.31858
 Alpha virt. eigenvalues --    0.32232   0.44102   0.47608   0.48518   0.52507
 Alpha virt. eigenvalues --    0.76859   0.80319   0.87088   1.09243   1.33295
 Alpha virt. eigenvalues --    1.36104   1.59256   1.69038   1.71460   1.88174
 Alpha virt. eigenvalues --    1.88886   1.94099   2.06403   2.14884   2.25042
 Alpha virt. eigenvalues --    2.33795   2.50523   2.75065   2.82974   2.90424
 Alpha virt. eigenvalues --    3.43144   3.47033   3.54464   3.63246   3.69490
 Alpha virt. eigenvalues --    3.78042   3.88779   3.95427   4.13892   4.24448
 Alpha virt. eigenvalues --    4.26460   4.33328   4.37735   4.40348   4.46128
 Alpha virt. eigenvalues --    4.47159   4.72766   4.81230   4.86116   5.27188
 Alpha virt. eigenvalues --    5.32492   5.98423   6.01467   6.14272   6.21194
 Alpha virt. eigenvalues --    6.24877   6.39854   6.66734   7.10915   7.50232
 Alpha virt. eigenvalues --    7.51556   7.61151   7.86556   7.92719   9.16032
          Condensed to atoms (all electrons):
               1          2          3
     1  O    7.783239  -0.006466   0.310419
     2  F   -0.006466   9.160568  -0.015457
     3  H    0.310419  -0.015457   0.479202
 Mulliken charges:
               1
     1  O   -0.087191
     2  F   -0.138645
     3  H    0.225836
 Sum of Mulliken charges =  -0.00000
 Mulliken charges with hydrogens summed into heavy atoms:
               1
     1  O    0.138645
     2  F   -0.138645
 APT charges:
               1
     1  O   -0.062087
     2  F   -0.217979
     3  H    0.280066
 Sum of APT charges =   0.00000
 APT charges with hydrogens summed into heavy atoms:
               1
     1  O    0.217979
     2  F   -0.217979
 Electronic spatial extent (au):  <R**2>=             59.6912
 Charge=             -0.0000 electrons
 Dipole moment (field-independent basis, Debye):
    X=             -1.7649    Y=              0.9434    Z=              0.0000  Tot=              2.0012
 Quadrupole moment (field-independent basis, Debye-Ang):
   XX=             -9.1436   YY=            -10.2939   ZZ=            -11.3740
   XY=             -1.6721   XZ=             -0.0000   YZ=              0.0000
 Traceless Quadrupole moment (field-independent basis, Debye-Ang):
   XX=              1.1269   YY=             -0.0234   ZZ=             -1.1035
   XY=             -1.6721   XZ=             -0.0000   YZ=              0.0000
 Octapole moment (field-independent basis, Debye-Ang**2):
  XXX=             -2.0885  YYY=             -1.0024  ZZZ=             -0.0000  XYY=             -1.6738
  XXY=              0.8349  XXZ=             -0.0000  XZZ=             -0.1942  YZZ=             -1.0372
  YYZ=             -0.0000  XYZ=             -0.0000
 Hexadecapole moment (field-independent basis, Debye-Ang**3):
 XXXX=             -8.0915 YYYY=            -37.6979 ZZZZ=             -8.5823 XXXY=             -0.5650
 XXXZ=             -0.0000 YYYX=             -0.6266 YYYZ=              0.0000 ZZZX=              0.0000
 ZZZY=              0.0000 XXYY=             -7.4753 XXZZ=             -3.0783 YYZZ=             -8.8392
 XXYZ=              0.0000 YYXZ=             -0.0000 ZZXY=              0.2502
 N-N= 3.358712082000D+01 E-N=-4.853032303557D+02  KE= 1.751672607289D+02
 Symmetry A'   KE= 1.634436437029D+02
 Symmetry A"   KE= 1.172361702604D+01
  Exact polarizability:   8.300  -0.899  13.696  -0.000   0.000   6.371
 Approx polarizability:  10.500  -0.984  21.055  -0.000  -0.000   7.286
 Calling FoFJK, ICntrl=    100127 FMM=F ISym2X=1 I1Cent= 0 IOpClX= 0 NMat=1 NMatS=1 NMatT=0.
 Full mass-weighted force constant matrix:
 Low frequencies ---  -49.2466  -11.4802   -2.9356   -0.0014    0.0016    0.0025
 Low frequencies ---  981.6472 1407.3394 3734.3052
 Diagonal vibrational polarizability:
        0.0762062       1.0342415       0.0000000
 Harmonic frequencies (cm**-1), IR intensities (KM/Mole), Raman scattering
 activities (A**4/AMU), depolarization ratios for plane and unpolarized
 incident light, reduced masses (AMU), force constants (mDyne/A),
 and normal coordinates:
                      1                      2                      3
                     A'                     A'                     A'
 Frequencies --    981.6472              1407.3393              3734.3052
 Red. masses --     16.9607                 1.0927                 1.0687
 Frc consts  --      9.6295                 1.2752                 8.7807
 IR Inten    --      9.1097                56.5365                45.5285
  Atom  AN      X      Y      Z        X      Y      Z        X      Y      Z
     1   8     0.01   0.76  -0.00    -0.05  -0.03   0.00    -0.06   0.01   0.00
     2   9    -0.00  -0.64   0.00     0.04  -0.03  -0.00     0.00  -0.00   0.00
     3   1    -0.13  -0.01   0.00     0.09   0.99  -0.00     0.99  -0.13  -0.00

 -------------------
 - Thermochemistry -
 -------------------
 Temperature   298.150 Kelvin.  Pressure   1.00000 Atm.
 Atom     1 has atomic number  8 and mass  15.99491
 Atom     2 has atomic number  9 and mass  18.99840
 Atom     3 has atomic number  1 and mass   1.00783
 Molecular mass:    36.00114 amu.
 Principal axes and moments of inertia in atomic units:
                           1         2         3
     Eigenvalues --     3.06626  66.55716  69.62341
           X           -0.04871   0.99881   0.00000
           Y            0.99881   0.04871   0.00000
           Z           -0.00000  -0.00000   1.00000
 This molecule is an asymmetric top.
 Rotational symmetry number  1.
 Rotational temperatures (Kelvin)     28.24743     1.30135     1.24403
 Rotational constants (GHZ):         588.58096    27.11566    25.92147
 Zero-point vibrational energy      36625.4 (Joules/Mol)
                                    8.75368 (Kcal/Mol)
 Vibrational temperatures:   1412.37  2024.85  5372.83
          (Kelvin)
 
 Zero-point correction=                           0.013950 (Hartree/Particle)
 Thermal correction to Energy=                    0.016829
 Thermal correction to Enthalpy=                  0.017773
 Thermal correction to Gibbs Free Energy=        -0.007929
 Sum of electronic and zero-point Energies=           -175.603292
 Sum of electronic and thermal Energies=              -175.600413
 Sum of electronic and thermal Enthalpies=            -175.599469
 Sum of electronic and thermal Free Energies=         -175.625171
 
                     E (Thermal)             CV                S
                      KCal/Mol        Cal/Mol-Kelvin    Cal/Mol-Kelvin
 Total                   10.560              6.463             54.094
 Electronic               0.000              0.000              0.000
 Translational            0.889              2.981             36.673
 Rotational               0.889              2.981             17.303
 Vibrational              8.783              0.501              0.118
                       Q            Log10(Q)             Ln(Q)
 Total Bot       0.443474D+04          3.646868          8.397225
 Total V=0       0.115708D+11         10.063364         23.171753
 Vib (Bot)       0.387093D-06         -6.412185        -14.764601
 Vib (V=0)       0.100998D+01          0.004311          0.009927
 Electronic      0.100000D+01          0.000000          0.000000
 Translational   0.849040D+07          6.928928         15.954447
 Rotational      0.134935D+04          3.130125          7.207379
 ***** Axes restored to original set *****
 -------------------------------------------------------------------
 Center     Atomic                   Forces (Hartrees/Bohr)
 Number     Number              X              Y              Z
 -------------------------------------------------------------------
      1        8          -0.000160568    0.000000000    0.000031562
      2        9          -0.000003725    0.000000000    0.000010342
      3        1           0.000164293   -0.000000000   -0.000041904
 -------------------------------------------------------------------
 Cartesian Forces:  Max     0.000164293 RMS     0.000078632
 FormGI is forming the generalized inverse of G from B-inverse, IUseBI=4.

 GradGradGradGradGradGradGradGradGradGradGradGradGradGradGradGradGradGrad
 Berny optimization.
 Internal  Forces:  Max     0.000169385 RMS     0.000098194
 Search for a local minimum.
 Step number   1 out of a maximum of    2
 All quantities printed in internal units (Hartrees-Bohrs-Radians)
 Second derivative matrix not updated -- analytic derivatives used.
 The second derivative matrix:
                          R1        R2        A1
           R1           0.33822
           R2          -0.00713   0.49970
           A1           0.07010  -0.00556   0.23255
 ITU=  0
     Eigenvalues ---    0.19759   0.37255   0.50033
 Angle between quadratic step and forces=   4.52 degrees.
 Linear search not attempted -- first point.
 Iteration  1 RMS(Cart)=  0.00016533 RMS(Int)=  0.00000001
 Iteration  2 RMS(Cart)=  0.00000001 RMS(Int)=  0.00000000
 ClnCor:  largest displacement from symmetrization is 1.34D-15 for atom     3.
 Variable       Old X    -DE/DX   Delta X   Delta X   Delta X     New X
                                 (Linear)    (Quad)   (Total)
    R1        2.70287   0.00001   0.00000   0.00003   0.00003   2.70290
    R2        1.83255   0.00017   0.00000   0.00034   0.00034   1.83289
    A1        1.72017   0.00001   0.00000   0.00005   0.00005   1.72022
         Item               Value     Threshold  Converged?
 Maximum Force            0.000169     0.000450     YES
 RMS     Force            0.000098     0.000300     YES
 Maximum Displacement     0.000183     0.001800     YES
 RMS     Displacement     0.000165     0.001200     YES
 Predicted change in Energy=-2.920886D-08
 Optimization completed.
    -- Stationary point found.
                           ----------------------------
                           !   Optimized Parameters   !
                           ! (Angstroms and Degrees)  !
 --------------------------                            --------------------------
 ! Name  Definition              Value          Derivative Info.                !
 --------------------------------------------------------------------------------
 ! R1    R(1,2)                  1.4303         -DE/DX =    0.0                 !
 ! R2    R(1,3)                  0.9697         -DE/DX =    0.0002              !
 ! A1    A(2,1,3)               98.5587         -DE/DX =    0.0                 !
 --------------------------------------------------------------------------------
 GradGradGradGradGradGradGradGradGradGradGradGradGradGradGradGradGradGrad


 ----------------------------------------------------------------------

 Electric dipole moment (input orientation):
 (Debye = 10**-18 statcoulomb cm , SI units = C m)
                  (au)            (Debye)         (10**-30 SI)
   Tot        0.787325D+00      0.200118D+01      0.667522D+01
   x          0.669287D+00      0.170116D+01      0.567445D+01
   y          0.000000D+00      0.000000D+00      0.000000D+00
   z         -0.414651D+00     -0.105394D+01     -0.351555D+01

 Dipole polarizability, Alpha (input orientation).
 (esu units = cm**3 , SI units = C**2 m**2 J**-1)
 Alpha(0;0):
               (au)            (10**-24 esu)      (10**-40 SI)
   iso        0.945586D+01      0.140121D+01      0.155906D+01
   aniso      0.675733D+01      0.100133D+01      0.111413D+01
   xx         0.820802D+01      0.121630D+01      0.135332D+01
   yx         0.000000D+00      0.000000D+00      0.000000D+00
   yy         0.637141D+01      0.944146D+00      0.105050D+01
   zx        -0.548357D+00     -0.812581D-01     -0.904119D-01
   zy         0.000000D+00      0.000000D+00      0.000000D+00
   zz         0.137881D+02      0.204319D+01      0.227336D+01

 ----------------------------------------------------------------------

 Dipole orientation:
     8         -0.05660198          0.00000000         -0.03415927
     9          2.32708381          0.00000000         -1.30834234
     1          0.55715814          0.00000000          1.69255579

 Electric dipole moment (dipole orientation):
 (Debye = 10**-18 statcoulomb cm , SI units = C m)
                  (au)            (Debye)         (10**-30 SI)
   Tot        0.787325D+00      0.200118D+01      0.667522D+01
   x          0.000000D+00      0.000000D+00      0.000000D+00
   y          0.000000D+00      0.000000D+00      0.000000D+00
   z          0.787325D+00      0.200118D+01      0.667522D+01

 Dipole polarizability, Alpha (dipole orientation).
 (esu units = cm**3 , SI units = C**2 m**2 J**-1)
 Alpha(0;0):
               (au)            (10**-24 esu)      (10**-40 SI)
   iso        0.945586D+01      0.140121D+01      0.155906D+01
   aniso      0.675733D+01      0.100133D+01      0.111413D+01
   xx         0.117494D+02      0.174108D+01      0.193721D+01
   yx         0.000000D+00      0.000000D+00      0.000000D+00
   yy         0.637141D+01      0.944146D+00      0.105050D+01
   zx        -0.274239D+01     -0.406380D+00     -0.452158D+00
   zy         0.000000D+00      0.000000D+00      0.000000D+00
   zz         0.102468D+02      0.151841D+01      0.168946D+01

 ----------------------------------------------------------------------
 1\1\GINC-GAMBA\Freq\RB3LYP\Gen\F1H1O1\IRIKURA\23-Jun-2022\0\\#N Geom=A
 llCheck Guess=TCheck SCRF=Check GenChk RB3LYP/ChkBas Freq\\HOF, B3LYP/
 pcseg-2\\0,1\O,-0.0311409623,0.,-0.0159419059\F,0.0600001482,0.,1.4114
 479461\H,0.9166593897,0.,-0.2210741948\\Version=ES64L-G16RevB.01\State
 =1-A'\HF=-175.6172422\RMSD=3.296e-10\RMSF=7.863e-05\ZeroPoint=0.013949
 9\Thermal=0.0168292\Dipole=0.6692873,0.,-0.4146506\DipoleDeriv=-0.0519
 781,0.,0.1553512,0.,-0.2844989,0.,0.014926,0.,0.1502161,-0.1402762,0.,
 -0.105911,0.,-0.098664,0.,0.0071169,0.,-0.4149958,0.1922543,0.,-0.0494
 402,0.,0.3831629,0.,-0.0220429,0.,0.2647798\Polar=8.2080203,0.,6.37141
 28,-0.5483571,0.,13.7881475\Quadrupole=0.6762612,-0.8204378,0.1441766,
 0.,-1.2874343,0.\PG=CS [SG(F1H1O1)]\NImag=0\\0.53337452,0.,-0.00008647
 ,-0.06521186,0.,0.35002884,-0.04072905,0.,-0.03682934,0.02977011,0.,0.
 00000111,0.,0.,-0.00000296,0.02203252,0.,-0.30156838,-0.00624243,0.,0.
 34027455,-0.49264546,0.,0.10204120,0.01095894,0.,-0.01579010,0.4816865
 2,0.,0.00008537,0.,0.,0.00000185,0.,0.,-0.00008722,0.04317934,0.,-0.04
 846046,0.04307177,0.,-0.03870617,-0.08625111,0.,0.08716662\\0.00016057
 ,0.,-0.00003156,0.00000372,0.,-0.00001034,-0.00016429,0.,0.00004190\\\
 @


 THOSE WITH THE GOLD MAKE THE RULES.

             -- PETER'S GOLDEN RULE
 Job cpu time:       0 days  0 hours  0 minutes 25.4 seconds.
 Elapsed time:       0 days  0 hours  0 minutes 12.9 seconds.
 File lengths (MBytes):  RWF=      6 Int=      0 D2E=      0 Chk=      2 Scr=      1
 Normal termination of Gaussian 16 at Thu Jun 23 09:27:16 2022.
