 Entering Gaussian System, Link 0=g16
 AtFile(1): pcseg2.gbs
            -H     0
            S   4   1.00
                  0.754732D+02           0.427821D-02
                  0.113575D+02           0.328672D-01
                  0.260081D+01           0.159578D+00
                  0.735503D+00           0.500000D+00
            S   1   1.00
                  0.231761D+00           1.0000000
            S   1   1.00
                  0.741675D-01           1.0000000
            P   1   1.00
                  0.160000D+01           1.0000000
            P   1   1.00
                  0.450000D+00           1.0000000
            D   1   1.00
                  0.125000D+01           1.0000000
            ****
            -C     0
            S   7   1.00
                  0.731999D+04           0.695369D-03
                  0.109818D+04           0.537138D-02
                  0.250014D+03           0.274734D-01
                  0.707586D+02           0.105078D+00
                  0.228595D+02           0.291262D+00
                  0.803936D+01           0.500000D+00
                  0.289309D+01           0.362224D+00
            S   2   1.00
                  0.521640D+01          -0.957844D-01
                  0.556124D+00           0.500000D+00
            S   1   1.00
                  0.228813D+00           1.0000000
            S   1   1.00
                  0.936338D-01           1.0000000
            P   4   1.00
                  0.339855D+02           0.818395D-02
                  0.772957D+01           0.586921D-01
                  0.224954D+01           0.222514D+00
                  0.767681D+00           0.500000D+00
            P   1   1.00
                  0.263283D+00           1.0000000
            P   1   1.00
                  0.848744D-01           1.0000000
            D   1   1.00
                  0.140000D+01           1.0000000
            D   1   1.00
                  0.450000D+00           1.0000000
            F   1   1.00
                  0.950000D+00           1.0000000
            ****
            -O     0
            S   7   1.00
                  0.135887D+05           0.665492D-03
                  0.203847D+04           0.514222D-02
                  0.464041D+03           0.263472D-01
                  0.131339D+03           0.101500D+00
                  0.425340D+02           0.285877D+00
                  0.150429D+02           0.500000D+00
                  0.546616D+01           0.368211D+00
            S   2   1.00
                  0.100915D+02          -0.100084D+00
                  0.110429D+01           0.500000D+00
            S   1   1.00
                  0.448082D+00           1.0000000
            S   1   1.00
                  0.175325D+00           1.0000000
            P   4   1.00
                  0.608220D+02           0.908253D-02
                  0.140332D+02           0.645878D-01
                  0.418244D+01           0.241502D+00
                  0.142490D+01           0.500000D+00
            P   1   1.00
                  0.478741D+00           1.0000000
            P   1   1.00
                  0.146257D+00           1.0000000
            D   1   1.00
                  0.220000D+01           1.0000000
            D   1   1.00
                  0.650000D+00           1.0000000
            F   1   1.00
                  0.110000D+01           1.0000000
            ****
            -N     0
            S   7   1.00
                  0.101643D+05           0.682757D-03
                  0.152481D+04           0.527488D-02
                  0.347119D+03           0.270037D-01
                  0.982389D+02           0.103673D+00
                  0.317799D+02           0.289575D+00
                  0.112240D+02           0.500000D+00
                  0.406611D+01           0.364621D+00
            S   2   1.00
                  0.747898D+01          -0.975681D-01
                  0.805040D+00           0.500000D+00
            S   1   1.00
                  0.324626D+00           1.0000000
            S   1   1.00
                  0.128132D+00           1.0000000
            P   4   1.00
                  0.482704D+02           0.829547D-02
                  0.110815D+02           0.596223D-01
                  0.326643D+01           0.227889D+00
                  0.111680D+01           0.500000D+00
            P   1   1.00
                  0.382049D+00           1.0000000
            P   1   1.00
                  0.121222D+00           1.0000000
            D   1   1.00
                  0.180000D+01           1.0000000
            D   1   1.00
                  0.550000D+00           1.0000000
            F   1   1.00
                  0.102000D+01           1.0000000
            ****
            -F     0
            S   7   1.00
                  0.174507D+05           0.655972D-03
                  0.261768D+04           0.506944D-02
                  0.595857D+03           0.259899D-01
                  0.168651D+03           0.100353D+00
                  0.546654D+02           0.284095D+00
                  0.193717D+02           0.500000D+00
                  0.706202D+01           0.370721D+00
            S   2   1.00
                  0.131197D+02          -0.101997D+00
                  0.145046D+01           0.500000D+00
            S   1   1.00
                  0.588255D+00           1.0000000
            S   1   1.00
                  0.227960D+00           1.0000000
            P   4   1.00
                  0.779407D+02           0.931135D-02
                  0.180425D+02           0.663964D-01
                  0.542342D+01           0.246386D+00
                  0.184876D+01           0.500000D+00
            P   1   1.00
                  0.617455D+00           1.0000000
            P   1   1.00
                  0.185496D+00           1.0000000
            D   1   1.00
                  0.280000D+01           1.0000000
            D   1   1.00
                  0.800000D+00           1.0000000
            F   1   1.00
                  0.120000D+01           1.0000000
            ****
            -Cl     0
            S   8   1.00
                  0.154272D+06           0.222473D-03
                  0.231232D+05           0.172590D-02
                  0.526257D+04           0.899286D-02
                  0.148995D+04           0.367724D-01
                  0.485417D+03           0.121446D+00
                  0.174634D+03           0.304148D+00
                  0.672393D+02           0.500000D+00
                  0.265780D+02           0.360252D+00
            S   3   1.00
                  0.131826D+03          -0.531330D-01
                  0.400703D+02          -0.233346D+00
                  0.789448D+01           0.500000D+00
            S   2   1.00
                  0.427711D+01           0.500000D+00
                  0.196233D+01           0.370517D+00
            S   1   1.00
                  0.520793D+00           1.0000000
            S   1   1.00
                  0.181633D+00           1.0000000
            P   7   1.00
                  0.124440D+04           0.988206D-03
                  0.295109D+03           0.829674D-02
                  0.947224D+02           0.430906D-01
                  0.352588D+02           0.148443D+00
                  0.144211D+02           0.344744D+00
                  0.610371D+01           0.500000D+00
                  0.258886D+01           0.348278D+00
            P   2   1.00
                  0.109447D+02          -0.196768D-01
                  0.104413D+01           0.500000D+00
            P   1   1.00
                  0.376184D+00           1.0000000
            P   1   1.00
                  0.120613D+00           1.0000000
            D   1   1.00
                  0.231000D+01           1.0000000
            D   1   1.00
                  0.520000D+00           1.0000000
            F   1   1.00
                  0.720000D+00           1.0000000
            ****
            -S     0
            S   8   1.00
                  0.134700D+06           0.226231D-03
                  0.201904D+05           0.175488D-02
                  0.459528D+04           0.914190D-02
                  0.130109D+04           0.373551D-01
                  0.423902D+03           0.123121D+00
                  0.152485D+03           0.306801D+00
                  0.586925D+02           0.500000D+00
                  0.231461D+02           0.354358D+00
            S   3   1.00
                  0.116327D+03          -0.491772D-01
                  0.352841D+02          -0.215962D+00
                  0.677831D+01           0.500000D+00
            S   2   1.00
                  0.360404D+01           0.500000D+00
                  0.164871D+01           0.366278D+00
            S   1   1.00
                  0.421821D+00           1.0000000
            S   1   1.00
                  0.147554D+00           1.0000000
            P   7   1.00
                  0.104863D+04           0.105273D-02
                  0.248717D+03           0.879338D-02
                  0.797887D+02           0.453358D-01
                  0.296023D+02           0.154476D+00
                  0.120627D+02           0.352366D+00
                  0.507628D+01           0.500000D+00
                  0.213375D+01           0.346429D+00
            P   2   1.00
                  0.928958D+01          -0.185932D-01
                  0.837819D+00           0.500000D+00
            P   1   1.00
                  0.301495D+00           1.0000000
            P   1   1.00
                  0.974740D-01           1.0000000
            D   1   1.00
                  0.210000D+01           1.0000000
            D   1   1.00
                  0.480000D+00           1.0000000
            F   1   1.00
                  0.660000D+00           1.0000000
            ****
            -Br     0
            S    10   1.00
                  0.233625D+07           0.532336D-04
                  0.349961D+06           0.413715D-03
                  0.796444D+05           0.217123D-02
                  0.225555D+05           0.910109D-02
                  0.735546D+04           0.323789D-01
                  0.265352D+04           0.988755D-01
                  0.103517D+04           0.248138D+00
                  0.422205D+03           0.474328D+00
                  0.180035D+03           0.500000D+00
                  0.793308D+02           0.187769D+00
            S    4   1.00
                  0.620834D+03          -0.226511D-01
                  0.190829D+03          -0.109497D+00
                  0.312505D+02           0.500000D+00
                  0.135270D+02           0.492812D+00
            S    2   1.00
                  0.216097D+02          -0.165418D+00
                  0.372566D+01           0.500000D+00
            S    1   1.00
                  0.169770D+01           1.0000000
            S    1   1.00
                  0.489332D+00           1.0000000
            S    1   1.00
                  0.175712D+00           1.0000000
            P    8   1.00
                  0.960829D+04           0.478974D-03
                  0.227618D+04           0.417853D-02
                  0.736723D+03           0.229315D-01
                  0.281579D+03           0.892653D-01
                  0.118395D+03           0.255288D+00
                  0.527481D+02           0.479074D+00
                  0.245098D+02           0.500000D+00
                  0.112009D+02           0.200944D+00
            P    4   1.00
                  0.587849D+02          -0.189674D-01
                  0.918962D+01           0.264104D+00
                  0.413895D+01           0.500000D+00
                  0.184225D+01           0.319316D+00
            P    1   1.00
                  0.713862D+00           1.0000000
            P    1   1.00
                  0.274232D+00           1.0000000
            P    1   1.00
                  0.944411D-01           1.0000000
            D    7   1.00
                  0.398470D+03           0.204066D-02
                  0.118967D+03           0.175171D-01
                  0.450197D+02           0.829708D-01
                  0.190320D+02           0.236284D+00
                  0.855686D+01           0.428468D+00
                  0.382950D+01           0.500000D+00
                  0.166291D+01           0.349360D+00
            D    1   1.00
                  0.672953D+00           1.0000000
            D    1   1.00
                  0.252000D+00           1.0000000
            F    1   1.00
                  0.530000D+00           1.0000000
            ****
            -Si     0
            S    8   1.00
                  0.996133D+05           0.235546D-03
                  0.149311D+05           0.182707D-02
                  0.339820D+04           0.951425D-02
                  0.962140D+03           0.388172D-01
                  0.313430D+03           0.127328D+00
                  0.112683D+03           0.313522D+00
                  0.433372D+02           0.500000D+00
                  0.170029D+02           0.340347D+00
            S    3   1.00
                  0.884208D+02          -0.404451D-01
                  0.266756D+02          -0.178059D+00
                  0.479640D+01           0.500000D+00
            S    2   1.00
                  0.239385D+01           0.500000D+00
                  0.108333D+01           0.338016D+00
            S    1   1.00
                  0.252420D+00           1.0000000
            S    1   1.00
                  0.891210D-01           1.0000000
            P    7   1.00
                  0.709901D+03           0.123028D-02
                  0.168426D+03           0.101366D-01
                  0.539946D+02           0.511840D-01
                  0.198646D+02           0.169967D+00
                  0.801369D+01           0.370717D+00
                  0.331870D+01           0.500000D+00
                  0.136112D+01           0.344128D+00
            P    2   1.00
                  0.622158D+01          -0.166609D-01
                  0.503049D+00           0.500000D+00
            P    1   1.00
                  0.179848D+00           1.0000000
            P    1   1.00
                  0.591912D-01           1.0000000
            D    1   1.00
                  0.168000D+01           1.0000000
            D    1   1.00
                  0.380000D+00           1.0000000
            F    1   1.00
                  0.540000D+00           1.0000000
            ****
            -P     0
            S    8   1.00
                  0.116416D+06           0.230715D-03
                  0.174500D+05           0.178960D-02
                  0.397149D+04           0.932116D-02
                  0.112447D+04           0.380591D-01
                  0.366347D+03           0.125148D+00
                  0.131757D+03           0.310022D+00
                  0.506988D+02           0.500000D+00
                  0.199436D+02           0.347528D+00
            S    3   1.00
                  0.101878D+03          -0.446755D-01
                  0.308249D+02          -0.196376D+00
                  0.573688D+01           0.500000D+00
            S    2   1.00
                  0.296868D+01           0.500000D+00
                  0.135315D+01           0.355098D+00
            S    1   1.00
                  0.332196D+00           1.0000000
            S    1   1.00
                  0.116229D+00           1.0000000
            P    7   1.00
                  0.873928D+03           0.112375D-02
                  0.207298D+03           0.933330D-02
                  0.664628D+02           0.477213D-01
                  0.245665D+02           0.160733D+00
                  0.996820D+01           0.359760D+00
                  0.416536D+01           0.500000D+00
                  0.173022D+01           0.346593D+00
            P    2   1.00
                  0.772530D+01          -0.175718D-01
                  0.657252D+00           0.500000D+00
            P    1   1.00
                  0.239903D+00           1.0000000
            P    1   1.00
                  0.800988D-01           1.0000000
            D    1   1.00
                  0.189000D+01           1.0000000
            D    1   1.00
                  0.430000D+00           1.0000000
            F    1   1.00
                  0.600000D+00           1.0000000
            ****
            
 Initial command:
 /usr/local/apps/g16_b01_avx/g16/l1.exe "/wrk/irikura/Gau-193654.inp" -scrdir="/wrk/irikura/"
 Entering Link 1 = /usr/local/apps/g16_b01_avx/g16/l1.exe PID=    193656.
  
 Copyright (c) 1988-2017, Gaussian, Inc.  All Rights Reserved.
  
 This is part of the Gaussian(R) 16 program.  It is based on
 the Gaussian(R) 09 system (copyright 2009, Gaussian, Inc.),
 the Gaussian(R) 03 system (copyright 2003, Gaussian, Inc.),
 the Gaussian(R) 98 system (copyright 1998, Gaussian, Inc.),
 the Gaussian(R) 94 system (copyright 1995, Gaussian, Inc.),
 the Gaussian 92(TM) system (copyright 1992, Gaussian, Inc.),
 the Gaussian 90(TM) system (copyright 1990, Gaussian, Inc.),
 the Gaussian 88(TM) system (copyright 1988, Gaussian, Inc.),
 the Gaussian 86(TM) system (copyright 1986, Carnegie Mellon
 University), and the Gaussian 82(TM) system (copyright 1983,
 Carnegie Mellon University). Gaussian is a federally registered
 trademark of Gaussian, Inc.
  
 This software contains proprietary and confidential information,
 including trade secrets, belonging to Gaussian, Inc.
  
 This software is provided under written license and may be
 used, copied, transmitted, or stored only in accord with that
 written license.
  
 The following legend is applicable only to US Government
 contracts under FAR:
  
                    RESTRICTED RIGHTS LEGEND
  
 Use, reproduction and disclosure by the US Government is
 subject to restrictions as set forth in subparagraphs (a)
 and (c) of the Commercial Computer Software - Restricted
 Rights clause in FAR 52.227-19.
  
 Gaussian, Inc.
 340 Quinnipiac St., Bldg. 40, Wallingford CT 06492
  
  
 ---------------------------------------------------------------
 Warning -- This program may not be used in any manner that
 competes with the business of Gaussian, Inc. or will provide
 assistance to any competitor of Gaussian, Inc.  The licensee
 of this program is prohibited from giving any competitor of
 Gaussian, Inc. access to this program.  By using this program,
 the user acknowledges that Gaussian, Inc. is engaged in the
 business of creating and licensing software in the field of
 computational chemistry and represents and warrants to the
 licensee that it is not a competitor of Gaussian, Inc. and that
 it will not use this program in any manner prohibited above.
 ---------------------------------------------------------------
  

 Cite this work as:
 Gaussian 16, Revision B.01,
 M. J. Frisch, G. W. Trucks, H. B. Schlegel, G. E. Scuseria, 
 M. A. Robb, J. R. Cheeseman, G. Scalmani, V. Barone, 
 G. A. Petersson, H. Nakatsuji, X. Li, M. Caricato, A. V. Marenich, 
 J. Bloino, B. G. Janesko, R. Gomperts, B. Mennucci, H. P. Hratchian, 
 J. V. Ortiz, A. F. Izmaylov, J. L. Sonnenberg, D. Williams-Young, 
 F. Ding, F. Lipparini, F. Egidi, J. Goings, B. Peng, A. Petrone, 
 T. Henderson, D. Ranasinghe, V. G. Zakrzewski, J. Gao, N. Rega, 
 G. Zheng, W. Liang, M. Hada, M. Ehara, K. Toyota, R. Fukuda, 
 J. Hasegawa, M. Ishida, T. Nakajima, Y. Honda, O. Kitao, H. Nakai, 
 T. Vreven, K. Throssell, J. A. Montgomery, Jr., J. E. Peralta, 
 F. Ogliaro, M. J. Bearpark, J. J. Heyd, E. N. Brothers, K. N. Kudin, 
 V. N. Staroverov, T. A. Keith, R. Kobayashi, J. Normand, 
 K. Raghavachari, A. P. Rendell, J. C. Burant, S. S. Iyengar, 
 J. Tomasi, M. Cossi, J. M. Millam, M. Klene, C. Adamo, R. Cammi, 
 J. W. Ochterski, R. L. Martin, K. Morokuma, O. Farkas, 
 J. B. Foresman, and D. J. Fox, Gaussian, Inc., Wallingford CT, 2016.
 
 ******************************************
 Gaussian 16:  ES64L-G16RevB.01 20-Dec-2017
                29-Sep-2023 
 ******************************************
 %chk=hoocl.chk
 %mem=500mw
 %nprocs=4
 Will use up to    4 processors via shared memory.
 ---------------------------------------
 # b3lyp/gen opt freq CPHF(Grid=OneStep)
 ---------------------------------------
 1/18=20,19=15,26=3,38=1/1,3;
 2/9=110,12=2,17=6,18=5,40=1/2;
 3/5=7,11=2,25=1,30=1,71=1,74=-5/1,2,3;
 4//1;
 5/5=2,38=5/2;
 6/7=2,8=2,9=2,10=2,28=1/1;
 7//1,2,3,16;
 1/18=20,19=15,26=3/3(2);
 2/9=110/2;
 99//99;
 2/9=110/2;
 3/5=7,6=1,11=2,25=1,30=1,71=1,74=-5,82=7/1,2,3;
 4/5=5,16=3,69=1/1;
 5/5=2,38=5/2;
 7//1,2,3,16;
 1/18=20,19=15,26=3/3(-5);
 2/9=110/2;
 6/7=2,8=2,9=2,10=2,19=2,28=1/1;
 99/9=1/99;
 -------------------------------------
 chlorine hydroperoxide, B3LYP/pcseg-2
 -------------------------------------
 Symbolic Z-matrix:
 Charge =  0 Multiplicity = 1
 O                    -1.52543  -0.31423  -0.12287 
 O                    -0.50324   0.648     0.02801 
 Cl                    1.05464  -0.12311  -0.00207 
 H                    -1.69963  -0.57731   0.79407 
 

 GradGradGradGradGradGradGradGradGradGradGradGradGradGradGradGradGradGrad
 Berny optimization.
 Initialization pass.
                           ----------------------------
                           !    Initial Parameters    !
                           ! (Angstroms and Degrees)  !
 --------------------------                            --------------------------
 ! Name  Definition              Value          Derivative Info.                !
 --------------------------------------------------------------------------------
 ! R1    R(1,2)                  1.4119         estimate D2E/DX2                !
 ! R2    R(1,4)                  0.9697         estimate D2E/DX2                !
 ! R3    R(2,3)                  1.7385         estimate D2E/DX2                !
 ! A1    A(2,1,4)              102.351          estimate D2E/DX2                !
 ! A2    A(1,2,3)              110.1588         estimate D2E/DX2                !
 ! D1    D(4,1,2,3)             88.9563         estimate D2E/DX2                !
 --------------------------------------------------------------------------------
 Trust Radius=3.00D-01 FncErr=1.00D-07 GrdErr=1.00D-06 EigMax=2.50D+02 EigMin=1.00D-04
 Number of steps in this run=     20 maximum allowed number of steps=    100.
 GradGradGradGradGradGradGradGradGradGradGradGradGradGradGradGradGradGrad

                          Input orientation:                          
 ---------------------------------------------------------------------
 Center     Atomic      Atomic             Coordinates (Angstroms)
 Number     Number       Type             X           Y           Z
 ---------------------------------------------------------------------
      1          8           0       -1.525426   -0.314232   -0.122874
      2          8           0       -0.503238    0.647995    0.028011
      3         17           0        1.054643   -0.123106   -0.002069
      4          1           0       -1.699632   -0.577312    0.794068
 ---------------------------------------------------------------------
                    Distance matrix (angstroms):
                    1          2          3          4
     1  O    0.000000
     2  O    1.411919   0.000000
     3  Cl   2.589957   1.738532   0.000000
     4  H    0.969712   1.876054   2.902786   0.000000
 Stoichiometry    ClHO2
 Framework group  C1[X(ClHO2)]
 Deg. of freedom     6
 Full point group                 C1      NOp   1
 Largest Abelian subgroup         C1      NOp   1
 Largest concise Abelian subgroup C1      NOp   1
                         Standard orientation:                         
 ---------------------------------------------------------------------
 Center     Atomic      Atomic             Coordinates (Angstroms)
 Number     Number       Type             X           Y           Z
 ---------------------------------------------------------------------
      1          8           0       -1.525426   -0.314232   -0.122874
      2          8           0       -0.503238    0.647995    0.028011
      3         17           0        1.054643   -0.123106   -0.002069
      4          1           0       -1.699632   -0.577312    0.794068
 ---------------------------------------------------------------------
 Rotational constants (GHZ):          50.5406004           6.0281295           5.4827663
 General basis read from cards:  (5D, 7F)
 There are   124 symmetry adapted cartesian basis functions of A   symmetry.
 There are   108 symmetry adapted basis functions of A   symmetry.
   108 basis functions,   190 primitive gaussians,   124 cartesian basis functions
    17 alpha electrons       17 beta electrons
       nuclear repulsion energy       102.8913013262 Hartrees.
 NAtoms=    4 NActive=    4 NUniq=    4 SFac= 1.00D+00 NAtFMM=   60 NAOKFM=F Big=F
 Integral buffers will be    131072 words long.
 Raffenetti 2 integral format.
 Two-electron integral symmetry is turned on.
 One-electron integrals computed using PRISM.
 NBasis=   108 RedAO= T EigKep=  4.37D-03  NBF=   108
 NBsUse=   108 1.00D-06 EigRej= -1.00D+00 NBFU=   108
 ExpMin= 7.42D-02 ExpMax= 1.54D+05 ExpMxC= 1.49D+03 IAcc=3 IRadAn=         5 AccDes= 0.00D+00
 Harris functional with IExCor=  402 and IRadAn=       5 diagonalized for initial guess.
 HarFok:  IExCor=  402 AccDes= 0.00D+00 IRadAn=         5 IDoV= 1 UseB2=F ITyADJ=14
 ICtDFT=  3500011 ScaDFX=  1.000000  1.000000  1.000000  1.000000
 FoFCou: FMM=F IPFlag=           0 FMFlag=      100000 FMFlg1=           0
         NFxFlg=           0 DoJE=T BraDBF=F KetDBF=T FulRan=T
         wScrn=  0.000000 ICntrl=       500 IOpCl=  0 I1Cent=   200000004 NGrid=           0
         NMat0=    1 NMatS0=      1 NMatT0=    0 NMatD0=    1 NMtDS0=    0 NMtDT0=    0
 Petite list used in FoFCou.
 Keep R1 ints in memory in canonical form, NReq=21131371.
 Requested convergence on RMS density matrix=1.00D-08 within 128 cycles.
 Requested convergence on MAX density matrix=1.00D-06.
 Requested convergence on             energy=1.00D-06.
 No special actions if energy rises.
 Integral accuracy reduced to 1.0D-05 until final iterations.
 Initial convergence to 1.0D-05 achieved.  Increase integral accuracy.
 SCF Done:  E(RB3LYP) =  -611.197695669     A.U. after   14 cycles
            NFock= 14  Conv=0.47D-08     -V/T= 2.0014

 **********************************************************************

            Population analysis using the SCF Density.

 **********************************************************************

 Orbital symmetries:
       Occupied  (A) (A) (A) (A) (A) (A) (A) (A) (A) (A) (A) (A)
                 (A) (A) (A) (A) (A)
       Virtual   (A) (A) (A) (A) (A) (A) (A) (A) (A) (A) (A) (A)
                 (A) (A) (A) (A) (A) (A) (A) (A) (A) (A) (A) (A)
                 (A) (A) (A) (A) (A) (A) (A) (A) (A) (A) (A) (A)
                 (A) (A) (A) (A) (A) (A) (A) (A) (A) (A) (A) (A)
                 (A) (A) (A) (A) (A) (A) (A) (A) (A) (A) (A) (A)
                 (A) (A) (A) (A) (A) (A) (A) (A) (A) (A) (A) (A)
                 (A) (A) (A) (A) (A) (A) (A) (A) (A) (A) (A) (A)
                 (A) (A) (A) (A) (A) (A) (A)
 The electronic state is 1-A.
 Alpha  occ. eigenvalues -- -101.56096 -19.26466 -19.22617  -9.50244  -7.26775
 Alpha  occ. eigenvalues --   -7.25392  -7.25325  -1.17900  -0.95729  -0.79550
 Alpha  occ. eigenvalues --   -0.57823  -0.51029  -0.48930  -0.39410  -0.34807
 Alpha  occ. eigenvalues --   -0.33939  -0.30043
 Alpha virt. eigenvalues --   -0.10853  -0.01454   0.02724   0.24899   0.26856
 Alpha virt. eigenvalues --    0.27322   0.29623   0.31681   0.32697   0.33368
 Alpha virt. eigenvalues --    0.35380   0.36797   0.40330   0.49902   0.52550
 Alpha virt. eigenvalues --    0.54713   0.56161   0.62242   0.65218   0.72014
 Alpha virt. eigenvalues --    0.79215   0.83896   0.97171   1.12183   1.27045
 Alpha virt. eigenvalues --    1.38555   1.42974   1.51991   1.66046   1.70743
 Alpha virt. eigenvalues --    1.76961   1.80655   1.90185   1.95221   1.97596
 Alpha virt. eigenvalues --    2.09366   2.09561   2.09796   2.09929   2.14308
 Alpha virt. eigenvalues --    2.16536   2.17145   2.21175   2.22956   2.28532
 Alpha virt. eigenvalues --    2.34511   2.46442   2.53488   2.67778   2.86617
 Alpha virt. eigenvalues --    3.21885   3.37880   3.43833   3.46793   3.47643
 Alpha virt. eigenvalues --    3.50632   3.51803   3.56675   3.63597   3.66383
 Alpha virt. eigenvalues --    3.77826   3.88305   3.96923   3.98588   4.03048
 Alpha virt. eigenvalues --    4.12048   4.26542   4.27992   4.39311   4.43142
 Alpha virt. eigenvalues --    4.56535   4.74812   4.86371   4.97978   5.19344
 Alpha virt. eigenvalues --    5.26542   5.88287   5.99702   6.07160   6.09781
 Alpha virt. eigenvalues --    6.14886   6.21690   6.22954   6.46416   6.58540
 Alpha virt. eigenvalues --    6.62872   6.81734   6.91167   7.25460   9.54834
 Alpha virt. eigenvalues --   32.05993
          Condensed to atoms (all electrons):
               1          2          3          4
     1  O    7.872526   0.021556  -0.060825   0.314012
     2  O    0.021556   8.093360   0.039470  -0.026097
     3  Cl  -0.060825   0.039470  16.961914   0.001789
     4  H    0.314012  -0.026097   0.001789   0.492388
 Mulliken charges:
               1
     1  O   -0.147269
     2  O   -0.128290
     3  Cl   0.057652
     4  H    0.217907
 Sum of Mulliken charges =  -0.00000
 Mulliken charges with hydrogens summed into heavy atoms:
               1
     1  O    0.070637
     2  O   -0.128290
     3  Cl   0.057652
 Electronic spatial extent (au):  <R**2>=            222.1588
 Charge=              0.0000 electrons
 Dipole moment (field-independent basis, Debye):
    X=             -0.4080    Y=             -0.8850    Z=              1.5376  Tot=              1.8204
 Quadrupole moment (field-independent basis, Debye-Ang):
   XX=            -21.5286   YY=            -23.9653   ZZ=            -23.0687
   XY=              0.8075   XZ=             -2.9538   YZ=             -1.0751
 Traceless Quadrupole moment (field-independent basis, Debye-Ang):
   XX=              1.3256   YY=             -1.1111   ZZ=             -0.2145
   XY=              0.8075   XZ=             -2.9538   YZ=             -1.0751
 Octapole moment (field-independent basis, Debye-Ang**2):
  XXX=             -3.2414  YYY=              0.1922  ZZZ=              1.5380  XYY=             -1.7107
  XXY=             -3.7512  XXZ=              5.2203  XZZ=             -4.0437  YZZ=             -0.6251
  YYZ=              0.8178  XYZ=              1.8747
 Hexadecapole moment (field-independent basis, Debye-Ang**3):
 XXXX=           -185.0815 YYYY=            -42.3103 ZZZZ=            -25.0104 XXXY=              1.8685
 XXXZ=            -10.1386 YYYX=              1.2445 YYYZ=             -0.6984 ZZZX=             -3.0017
 ZZZY=             -1.1278 XXYY=            -37.5210 XXZZ=            -34.7560 YYZZ=            -11.2987
 XXYZ=             -3.0721 YYXZ=             -1.4390 ZZXY=              1.5780
 N-N= 1.028913013262D+02 E-N=-1.657809094569D+03  KE= 6.103678708393D+02
 Calling FoFJK, ICntrl=      2127 FMM=F ISym2X=0 I1Cent= 0 IOpClX= 0 NMat=1 NMatS=1 NMatT=0.
 ***** Axes restored to original set *****
 -------------------------------------------------------------------
 Center     Atomic                   Forces (Hartrees/Bohr)
 Number     Number              X              Y              Z
 -------------------------------------------------------------------
      1        8           0.000054853    0.000111578   -0.000179072
      2        8           0.000014392   -0.000063088   -0.000033752
      3       17          -0.000022196    0.000029472    0.000013463
      4        1          -0.000047049   -0.000077962    0.000199361
 -------------------------------------------------------------------
 Cartesian Forces:  Max     0.000199361 RMS     0.000092390

 GradGradGradGradGradGradGradGradGradGradGradGradGradGradGradGradGradGrad
 Berny optimization.
 FormGI is forming the generalized inverse of G from B-inverse, IUseBI=4.
 Internal  Forces:  Max     0.000218418 RMS     0.000095102
 Search for a local minimum.
 Step number   1 out of a maximum of   20
 All quantities printed in internal units (Hartrees-Bohrs-Radians)
 Mixed Optimization -- En-DIIS/RFO-DIIS
 Second derivative matrix not updated -- first step.
 The second derivative matrix:
                          R1        R2        R3        A1        A2
           R1           0.43701
           R2           0.00000   0.53436
           R3           0.00000   0.00000   0.31625
           A1           0.00000   0.00000   0.00000   0.16000
           A2           0.00000   0.00000   0.00000   0.00000   0.25000
           D1           0.00000   0.00000   0.00000   0.00000   0.00000
                          D1
           D1           0.01137
 ITU=  0
     Eigenvalues ---    0.01137   0.16000   0.25000   0.31625   0.43701
     Eigenvalues ---    0.53436
 RFO step:  Lambda=-1.47569764D-07 EMin= 1.13713885D-02
 Linear search not attempted -- first point.
 Iteration  1 RMS(Cart)=  0.00071992 RMS(Int)=  0.00000050
 Iteration  2 RMS(Cart)=  0.00000034 RMS(Int)=  0.00000000
 Variable       Old X    -DE/DX   Delta X   Delta X   Delta X     New X
                                 (Linear)    (Quad)   (Total)
    R1        2.66814  -0.00003   0.00000  -0.00007  -0.00007   2.66807
    R2        1.83249   0.00022   0.00000   0.00041   0.00041   1.83290
    R3        3.28535  -0.00003   0.00000  -0.00010  -0.00010   3.28525
    A1        1.78636   0.00004   0.00000   0.00023   0.00023   1.78660
    A2        1.92263   0.00005   0.00000   0.00021   0.00021   1.92284
    D1        1.55258  -0.00002   0.00000  -0.00170  -0.00170   1.55088
         Item               Value     Threshold  Converged?
 Maximum Force            0.000218     0.000450     YES
 RMS     Force            0.000095     0.000300     YES
 Maximum Displacement     0.000770     0.001800     YES
 RMS     Displacement     0.000720     0.001200     YES
 Predicted change in Energy=-7.378488D-08
 Optimization completed.
    -- Stationary point found.
                           ----------------------------
                           !   Optimized Parameters   !
                           ! (Angstroms and Degrees)  !
 --------------------------                            --------------------------
 ! Name  Definition              Value          Derivative Info.                !
 --------------------------------------------------------------------------------
 ! R1    R(1,2)                  1.4119         -DE/DX =    0.0                 !
 ! R2    R(1,4)                  0.9697         -DE/DX =    0.0002              !
 ! R3    R(2,3)                  1.7385         -DE/DX =    0.0                 !
 ! A1    A(2,1,4)              102.351          -DE/DX =    0.0                 !
 ! A2    A(1,2,3)              110.1588         -DE/DX =    0.0001              !
 ! D1    D(4,1,2,3)             88.9563         -DE/DX =    0.0                 !
 --------------------------------------------------------------------------------
 GradGradGradGradGradGradGradGradGradGradGradGradGradGradGradGradGradGrad

                          Input orientation:                          
 ---------------------------------------------------------------------
 Center     Atomic      Atomic             Coordinates (Angstroms)
 Number     Number       Type             X           Y           Z
 ---------------------------------------------------------------------
      1          8           0       -1.525426   -0.314232   -0.122874
      2          8           0       -0.503238    0.647995    0.028011
      3         17           0        1.054643   -0.123106   -0.002069
      4          1           0       -1.699632   -0.577312    0.794068
 ---------------------------------------------------------------------
                    Distance matrix (angstroms):
                    1          2          3          4
     1  O    0.000000
     2  O    1.411919   0.000000
     3  Cl   2.589957   1.738532   0.000000
     4  H    0.969712   1.876054   2.902786   0.000000
 Stoichiometry    ClHO2
 Framework group  C1[X(ClHO2)]
 Deg. of freedom     6
 Full point group                 C1      NOp   1
 Largest Abelian subgroup         C1      NOp   1
 Largest concise Abelian subgroup C1      NOp   1
                         Standard orientation:                         
 ---------------------------------------------------------------------
 Center     Atomic      Atomic             Coordinates (Angstroms)
 Number     Number       Type             X           Y           Z
 ---------------------------------------------------------------------
      1          8           0       -1.525426   -0.314232   -0.122874
      2          8           0       -0.503238    0.647995    0.028011
      3         17           0        1.054643   -0.123106   -0.002069
      4          1           0       -1.699632   -0.577312    0.794068
 ---------------------------------------------------------------------
 Rotational constants (GHZ):          50.5406004           6.0281295           5.4827663
 1\1\GINC-GAMBA\FOpt\RB3LYP\Gen\Cl1H1O2\IRIKURA\29-Sep-2023\0\\# b3lyp/
 gen opt freq CPHF(Grid=OneStep)\\chlorine hydroperoxide, B3LYP/pcseg-2
 \\0,1\O,-1.525426,-0.314232,-0.122874\O,-0.503238,0.647995,0.028011\Cl
 ,1.054643,-0.123106,-0.002069\H,-1.699632,-0.577312,0.794068\\Version=
 ES64L-G16RevB.01\State=1-A\HF=-611.1976957\RMSD=4.656e-09\RMSF=9.239e-
 05\Dipole=-0.1605281,-0.3481784,0.6049561\Quadrupole=0.9855276,-0.8260
 588,-0.1594688,0.6003724,-2.1960634,-0.7993153\PG=C01 [X(Cl1H1O2)]\\@


 CONFIDENCE: THAT QUIET ASSURED FEELING YOU HAVE
 JUST BEFORE YOU FALL FLAT ON YOUR FACE.
 Job cpu time:       0 days  0 hours  0 minutes 29.2 seconds.
 Elapsed time:       0 days  0 hours  0 minutes  7.6 seconds.
 File lengths (MBytes):  RWF=     10 Int=      0 D2E=      0 Chk=      2 Scr=      1
 Normal termination of Gaussian 16 at Fri Sep 29 01:18:55 2023.
 Link1:  Proceeding to internal job step number  2.
 ------------------------------------------------------------------
 #N Geom=AllCheck Guess=TCheck SCRF=Check GenChk RB3LYP/ChkBas Freq
 ------------------------------------------------------------------
 1/10=4,29=7,30=1,38=1,40=1/1,3;
 2/12=2,40=1/2;
 3/5=7,6=2,11=2,14=-4,25=1,30=1,67=1,70=2,71=2,74=-5,82=7,116=1,140=1/1,2,3;
 4/5=101/1;
 5/5=2,38=6,98=1/2;
 8/6=4,10=90,11=11/1;
 11/6=1,8=1,9=11,15=111,16=1/1,2,10;
 10/6=1,60=-420/2;
 6/7=2,8=2,9=2,10=2,28=1/1;
 7/8=1,10=1,25=1/1,2,3,16;
 1/10=4,30=1/3;
 99//99;
 Structure from the checkpoint file:  "hoocl.chk"
 -------------------------------------
 chlorine hydroperoxide, B3LYP/pcseg-2
 -------------------------------------
 Charge =  0 Multiplicity = 1
 Redundant internal coordinates found in file.  (old form).
 O,0,-1.525426,-0.314232,-0.122874
 O,0,-0.503238,0.647995,0.028011
 Cl,0,1.054643,-0.123106,-0.002069
 H,0,-1.699632,-0.577312,0.794068
 Recover connectivity data from disk.

 GradGradGradGradGradGradGradGradGradGradGradGradGradGradGradGradGradGrad
 Berny optimization.
 Initialization pass.
                           ----------------------------
                           !    Initial Parameters    !
                           ! (Angstroms and Degrees)  !
 --------------------------                            --------------------------
 ! Name  Definition              Value          Derivative Info.                !
 --------------------------------------------------------------------------------
 ! R1    R(1,2)                  1.4119         calculate D2E/DX2 analytically  !
 ! R2    R(1,4)                  0.9697         calculate D2E/DX2 analytically  !
 ! R3    R(2,3)                  1.7385         calculate D2E/DX2 analytically  !
 ! A1    A(2,1,4)              102.351          calculate D2E/DX2 analytically  !
 ! A2    A(1,2,3)              110.1588         calculate D2E/DX2 analytically  !
 ! D1    D(4,1,2,3)             88.9563         calculate D2E/DX2 analytically  !
 --------------------------------------------------------------------------------
 Trust Radius=3.00D-01 FncErr=1.00D-07 GrdErr=1.00D-07 EigMax=2.50D+02 EigMin=1.00D-04
 Number of steps in this run=      2 maximum allowed number of steps=      2.
 GradGradGradGradGradGradGradGradGradGradGradGradGradGradGradGradGradGrad

                          Input orientation:                          
 ---------------------------------------------------------------------
 Center     Atomic      Atomic             Coordinates (Angstroms)
 Number     Number       Type             X           Y           Z
 ---------------------------------------------------------------------
      1          8           0       -1.525426   -0.314232   -0.122874
      2          8           0       -0.503238    0.647995    0.028011
      3         17           0        1.054643   -0.123106   -0.002069
      4          1           0       -1.699632   -0.577312    0.794068
 ---------------------------------------------------------------------
                    Distance matrix (angstroms):
                    1          2          3          4
     1  O    0.000000
     2  O    1.411919   0.000000
     3  Cl   2.589957   1.738532   0.000000
     4  H    0.969712   1.876054   2.902786   0.000000
 Stoichiometry    ClHO2
 Framework group  C1[X(ClHO2)]
 Deg. of freedom     6
 Full point group                 C1      NOp   1
 Largest Abelian subgroup         C1      NOp   1
 Largest concise Abelian subgroup C1      NOp   1
                         Standard orientation:                         
 ---------------------------------------------------------------------
 Center     Atomic      Atomic             Coordinates (Angstroms)
 Number     Number       Type             X           Y           Z
 ---------------------------------------------------------------------
      1          8           0       -1.525426   -0.314232   -0.122874
      2          8           0       -0.503238    0.647995    0.028011
      3         17           0        1.054643   -0.123106   -0.002069
      4          1           0       -1.699632   -0.577312    0.794068
 ---------------------------------------------------------------------
 Rotational constants (GHZ):          50.5406004           6.0281295           5.4827663
 Basis read from chk: "hoocl.chk" (5D, 7F)
 There are   124 symmetry adapted cartesian basis functions of A   symmetry.
 There are   108 symmetry adapted basis functions of A   symmetry.
   108 basis functions,   190 primitive gaussians,   124 cartesian basis functions
    17 alpha electrons       17 beta electrons
       nuclear repulsion energy       102.8913013262 Hartrees.
 NAtoms=    4 NActive=    4 NUniq=    4 SFac= 1.00D+00 NAtFMM=   60 NAOKFM=F Big=F
 Integral buffers will be    131072 words long.
 Raffenetti 2 integral format.
 Two-electron integral symmetry is turned on.
 One-electron integrals computed using PRISM.
 NBasis=   108 RedAO= T EigKep=  4.37D-03  NBF=   108
 NBsUse=   108 1.00D-06 EigRej= -1.00D+00 NBFU=   108
 Initial guess from the checkpoint file:  "hoocl.chk"
 B after Tr=    -0.000000   -0.000000   -0.000000
         Rot=    1.000000    0.000000   -0.000000    0.000000 Ang=   0.00 deg.
 Keep R1 ints in memory in canonical form, NReq=21131371.
 Requested convergence on RMS density matrix=1.00D-08 within 128 cycles.
 Requested convergence on MAX density matrix=1.00D-06.
 Requested convergence on             energy=1.00D-06.
 No special actions if energy rises.
 SCF Done:  E(RB3LYP) =  -611.197695669     A.U. after    1 cycles
            NFock=  1  Conv=0.24D-08     -V/T= 2.0014
 DoSCS=F DFT=T ScalE2(SS,OS)=  1.000000  1.000000
 Range of M.O.s used for correlation:     1   108
 NBasis=   108 NAE=    17 NBE=    17 NFC=     0 NFV=     0
 NROrb=    108 NOA=    17 NOB=    17 NVA=    91 NVB=    91
 Symmetrizing basis deriv contribution to polar:
 IMax=3 JMax=2 DiffMx= 0.00D+00
 G2DrvN: will do     5 centers at a time, making    1 passes.
 Calling FoFCou, ICntrl=  3107 FMM=F I1Cent=   0 AccDes= 0.00D+00.
 End of G2Drv F.D. properties file   721 does not exist.
 End of G2Drv F.D. properties file   722 does not exist.
 End of G2Drv F.D. properties file   788 does not exist.
          IDoAtm=1111
          Differentiating once with respect to electric field.
                with respect to dipole field.
          Differentiating once with respect to nuclear coordinates.
 Keep R1 ints in memory in canonical form, NReq=21126081.
          There are    15 degrees of freedom in the 1st order CPHF.  IDoFFX=6 NUNeed=     3.
     12 vectors produced by pass  0 Test12= 1.03D-14 6.67D-09 XBig12= 4.29D+01 3.88D+00.
 AX will form    12 AO Fock derivatives at one time.
     12 vectors produced by pass  1 Test12= 1.03D-14 6.67D-09 XBig12= 1.20D+01 1.18D+00.
     12 vectors produced by pass  2 Test12= 1.03D-14 6.67D-09 XBig12= 6.85D-01 1.68D-01.
     12 vectors produced by pass  3 Test12= 1.03D-14 6.67D-09 XBig12= 1.99D-02 3.47D-02.
     12 vectors produced by pass  4 Test12= 1.03D-14 6.67D-09 XBig12= 8.78D-05 1.95D-03.
     12 vectors produced by pass  5 Test12= 1.03D-14 6.67D-09 XBig12= 1.72D-07 8.13D-05.
      8 vectors produced by pass  6 Test12= 1.03D-14 6.67D-09 XBig12= 4.01D-10 3.80D-06.
      3 vectors produced by pass  7 Test12= 1.03D-14 6.67D-09 XBig12= 1.08D-12 1.62D-07.
      1 vectors produced by pass  8 Test12= 1.03D-14 6.67D-09 XBig12= 1.45D-15 8.24D-09.
 InvSVY:  IOpt=1 It=  1 EMax= 1.55D-15
 Solved reduced A of dimension    84 with    12 vectors.
 Isotropic polarizability for W=    0.000000       24.07 Bohr**3.
 End of Minotr F.D. properties file   721 does not exist.
 End of Minotr F.D. properties file   722 does not exist.
 End of Minotr F.D. properties file   788 does not exist.

 **********************************************************************

            Population analysis using the SCF Density.

 **********************************************************************

 Orbital symmetries:
       Occupied  (A) (A) (A) (A) (A) (A) (A) (A) (A) (A) (A) (A)
                 (A) (A) (A) (A) (A)
       Virtual   (A) (A) (A) (A) (A) (A) (A) (A) (A) (A) (A) (A)
                 (A) (A) (A) (A) (A) (A) (A) (A) (A) (A) (A) (A)
                 (A) (A) (A) (A) (A) (A) (A) (A) (A) (A) (A) (A)
                 (A) (A) (A) (A) (A) (A) (A) (A) (A) (A) (A) (A)
                 (A) (A) (A) (A) (A) (A) (A) (A) (A) (A) (A) (A)
                 (A) (A) (A) (A) (A) (A) (A) (A) (A) (A) (A) (A)
                 (A) (A) (A) (A) (A) (A) (A) (A) (A) (A) (A) (A)
                 (A) (A) (A) (A) (A) (A) (A)
 The electronic state is 1-A.
 Alpha  occ. eigenvalues -- -101.56096 -19.26466 -19.22617  -9.50244  -7.26775
 Alpha  occ. eigenvalues --   -7.25392  -7.25325  -1.17900  -0.95729  -0.79550
 Alpha  occ. eigenvalues --   -0.57823  -0.51029  -0.48930  -0.39410  -0.34807
 Alpha  occ. eigenvalues --   -0.33939  -0.30043
 Alpha virt. eigenvalues --   -0.10853  -0.01454   0.02724   0.24899   0.26856
 Alpha virt. eigenvalues --    0.27322   0.29623   0.31681   0.32697   0.33368
 Alpha virt. eigenvalues --    0.35380   0.36797   0.40330   0.49902   0.52550
 Alpha virt. eigenvalues --    0.54713   0.56161   0.62242   0.65218   0.72014
 Alpha virt. eigenvalues --    0.79215   0.83896   0.97171   1.12183   1.27045
 Alpha virt. eigenvalues --    1.38555   1.42974   1.51991   1.66046   1.70743
 Alpha virt. eigenvalues --    1.76961   1.80655   1.90185   1.95221   1.97596
 Alpha virt. eigenvalues --    2.09366   2.09561   2.09796   2.09929   2.14308
 Alpha virt. eigenvalues --    2.16536   2.17145   2.21175   2.22956   2.28532
 Alpha virt. eigenvalues --    2.34511   2.46442   2.53488   2.67778   2.86617
 Alpha virt. eigenvalues --    3.21885   3.37880   3.43833   3.46793   3.47643
 Alpha virt. eigenvalues --    3.50632   3.51803   3.56675   3.63597   3.66383
 Alpha virt. eigenvalues --    3.77826   3.88305   3.96923   3.98588   4.03048
 Alpha virt. eigenvalues --    4.12048   4.26542   4.27992   4.39311   4.43142
 Alpha virt. eigenvalues --    4.56535   4.74812   4.86371   4.97978   5.19344
 Alpha virt. eigenvalues --    5.26542   5.88287   5.99702   6.07160   6.09781
 Alpha virt. eigenvalues --    6.14886   6.21690   6.22954   6.46416   6.58540
 Alpha virt. eigenvalues --    6.62872   6.81734   6.91167   7.25460   9.54834
 Alpha virt. eigenvalues --   32.05993
          Condensed to atoms (all electrons):
               1          2          3          4
     1  O    7.872526   0.021556  -0.060825   0.314012
     2  O    0.021556   8.093360   0.039470  -0.026097
     3  Cl  -0.060825   0.039470  16.961915   0.001789
     4  H    0.314012  -0.026097   0.001789   0.492388
 Mulliken charges:
               1
     1  O   -0.147269
     2  O   -0.128289
     3  Cl   0.057652
     4  H    0.217907
 Sum of Mulliken charges =  -0.00000
 Mulliken charges with hydrogens summed into heavy atoms:
               1
     1  O    0.070638
     2  O   -0.128289
     3  Cl   0.057652
 APT charges:
               1
     1  O   -0.311502
     2  O    0.197034
     3  Cl  -0.134112
     4  H    0.248580
 Sum of APT charges =  -0.00000
 APT charges with hydrogens summed into heavy atoms:
               1
     1  O   -0.062922
     2  O    0.197034
     3  Cl  -0.134112
 Electronic spatial extent (au):  <R**2>=            222.1588
 Charge=              0.0000 electrons
 Dipole moment (field-independent basis, Debye):
    X=             -0.4080    Y=             -0.8850    Z=              1.5376  Tot=              1.8204
 Quadrupole moment (field-independent basis, Debye-Ang):
   XX=            -21.5286   YY=            -23.9653   ZZ=            -23.0687
   XY=              0.8075   XZ=             -2.9538   YZ=             -1.0751
 Traceless Quadrupole moment (field-independent basis, Debye-Ang):
   XX=              1.3256   YY=             -1.1111   ZZ=             -0.2145
   XY=              0.8075   XZ=             -2.9538   YZ=             -1.0751
 Octapole moment (field-independent basis, Debye-Ang**2):
  XXX=             -3.2414  YYY=              0.1922  ZZZ=              1.5380  XYY=             -1.7107
  XXY=             -3.7512  XXZ=              5.2203  XZZ=             -4.0437  YZZ=             -0.6251
  YYZ=              0.8178  XYZ=              1.8747
 Hexadecapole moment (field-independent basis, Debye-Ang**3):
 XXXX=           -185.0815 YYYY=            -42.3103 ZZZZ=            -25.0104 XXXY=              1.8685
 XXXZ=            -10.1386 YYYX=              1.2445 YYYZ=             -0.6984 ZZZX=             -3.0017
 ZZZY=             -1.1278 XXYY=            -37.5210 XXZZ=            -34.7560 YYZZ=            -11.2987
 XXYZ=             -3.0721 YYXZ=             -1.4390 ZZXY=              1.5780
 N-N= 1.028913013262D+02 E-N=-1.657809098457D+03  KE= 6.103678722487D+02
  Exact polarizability:  38.623  -0.694  18.516  -0.927  -0.501  15.062
 Approx polarizability:  61.744  -3.692  29.587  -0.478  -0.378  21.200
 Calling FoFJK, ICntrl=    100127 FMM=F ISym2X=0 I1Cent= 0 IOpClX= 0 NMat=1 NMatS=1 NMatT=0.
 Full mass-weighted force constant matrix:
 Low frequencies ---  -10.8218   -0.0049   -0.0036    0.0032    8.1481   10.7925
 Low frequencies ---  369.7477  411.6298  639.1850
 Diagonal vibrational polarizability:
       12.3126297       9.1071993       0.2354594
 Harmonic frequencies (cm**-1), IR intensities (KM/Mole), Raman scattering
 activities (A**4/AMU), depolarization ratios for plane and unpolarized
 incident light, reduced masses (AMU), force constants (mDyne/A),
 and normal coordinates:
                      1                      2                      3
                      A                      A                      A
 Frequencies --    369.7472               411.6257               639.1850
 Red. masses --      5.3076                 1.2948                16.3002
 Frc consts  --      0.4275                 0.1293                 3.9237
 IR Inten    --     16.6428                85.1687                37.8948
  Atom  AN      X      Y      Z        X      Y      Z        X      Y      Z
     1   8     0.34  -0.08   0.01     0.08  -0.07  -0.02    -0.26   0.06  -0.00
     2   8     0.11   0.20  -0.01     0.04   0.01   0.06     0.73  -0.47  -0.04
     3  17    -0.22  -0.04   0.00    -0.03   0.01  -0.02    -0.22   0.19   0.02
     4   1     0.75  -0.47  -0.03    -0.66   0.73   0.06     0.21  -0.21   0.01
                      4                      5                      6
                      A                      A                      A
 Frequencies --    893.5094              1410.2137              3704.8982
 Red. masses --     15.4614                 1.1038                 1.0686
 Frc consts  --      7.2727                 1.2934                 8.6420
 IR Inten    --     50.4330                42.2070                43.2563
  Atom  AN      X      Y      Z        X      Y      Z        X      Y      Z
     1   8    -0.49  -0.48  -0.09    -0.02  -0.01  -0.05     0.01   0.02  -0.06
     2   8     0.32   0.59   0.08    -0.03  -0.03   0.04     0.00  -0.00   0.00
     3  17     0.07  -0.05  -0.00     0.00   0.00   0.00    -0.00   0.00  -0.00
     4   1     0.13  -0.09   0.14     0.74   0.62   0.25    -0.17  -0.26   0.95

 -------------------
 - Thermochemistry -
 -------------------
 Temperature   298.150 Kelvin.  Pressure   1.00000 Atm.
 Atom     1 has atomic number  8 and mass  15.99491
 Atom     2 has atomic number  8 and mass  15.99491
 Atom     3 has atomic number 17 and mass  34.96885
 Atom     4 has atomic number  1 and mass   1.00783
 Molecular mass:    67.96651 amu.
 Principal axes and moments of inertia in atomic units:
                           1         2         3
     Eigenvalues --    35.70874 299.38660 329.16618
           X            0.99975   0.01406  -0.01740
           Y           -0.01503   0.99823  -0.05748
           Z            0.01656   0.05772   0.99820
 This molecule is an asymmetric top.
 Rotational symmetry number  1.
 Rotational temperatures (Kelvin)      2.42557     0.28930     0.26313
 Rotational constants (GHZ):          50.54060     6.02813     5.48277
 Zero-point vibrational energy      44436.4 (Joules/Mol)
                                   10.62054 (Kcal/Mol)
 Warning -- explicit consideration of   2 degrees of freedom as
           vibrations may cause significant error
 Vibrational temperatures:    531.98   592.24   919.64  1285.56  2028.98
          (Kelvin)           5330.52
 
 Zero-point correction=                           0.016925 (Hartree/Particle)
 Thermal correction to Energy=                    0.020598
 Thermal correction to Enthalpy=                  0.021542
 Thermal correction to Gibbs Free Energy=        -0.008817
 Sum of electronic and zero-point Energies=           -611.180771
 Sum of electronic and thermal Energies=              -611.177098
 Sum of electronic and thermal Enthalpies=            -611.176154
 Sum of electronic and thermal Free Energies=         -611.206513
 
                     E (Thermal)             CV                S
                      KCal/Mol        Cal/Mol-Kelvin    Cal/Mol-Kelvin
 Total                   12.925             10.502             63.896
 Electronic               0.000              0.000              0.000
 Translational            0.889              2.981             38.567
 Rotational               0.889              2.981             22.780
 Vibrational             11.148              4.541              2.549
 Vibration     1          0.742              1.534              1.081
 Vibration     2          0.776              1.445              0.921
                       Q            Log10(Q)             Ln(Q)
 Total Bot       0.113669D+05          4.055642          9.338461
 Total V=0       0.692717D+12         11.840556         27.263888
 Vib (Bot)       0.243046D-07         -7.614311        -17.532599
 Vib (Bot)    1  0.492472D+00         -0.307618         -0.708317
 Vib (Bot)    2  0.429289D+00         -0.367250         -0.845624
 Vib (V=0)       0.148116D+01          0.170603          0.392828
 Vib (V=0)    1  0.120180D+01          0.079834          0.183824
 Vib (V=0)    2  0.115901D+01          0.064086          0.147563
 Electronic      0.100000D+01          0.000000          0.000000
 Translational   0.220240D+08          7.342896         16.907644
 Rotational      0.212352D+05          4.327057          9.963416
 ***** Axes restored to original set *****
 -------------------------------------------------------------------
 Center     Atomic                   Forces (Hartrees/Bohr)
 Number     Number              X              Y              Z
 -------------------------------------------------------------------
      1        8           0.000054884    0.000111570   -0.000179059
      2        8           0.000014306   -0.000063050   -0.000033753
      3       17          -0.000022143    0.000029438    0.000013462
      4        1          -0.000047047   -0.000077957    0.000199350
 -------------------------------------------------------------------
 Cartesian Forces:  Max     0.000199350 RMS     0.000092381
 FormGI is forming the generalized inverse of G from B-inverse, IUseBI=4.

 GradGradGradGradGradGradGradGradGradGradGradGradGradGradGradGradGradGrad
 Berny optimization.
 Internal  Forces:  Max     0.000218404 RMS     0.000095090
 Search for a local minimum.
 Step number   1 out of a maximum of    2
 All quantities printed in internal units (Hartrees-Bohrs-Radians)
 Second derivative matrix not updated -- analytic derivatives used.
 The second derivative matrix:
                          R1        R2        R3        A1        A2
           R1           0.27682
           R2           0.00390   0.49192
           R3           0.06474  -0.00157   0.15801
           A1           0.06872  -0.00729   0.00103   0.23080
           A2           0.04237  -0.00152   0.01458   0.00197   0.30715
           D1          -0.00093   0.00197   0.00254   0.00929   0.00710
                          D1
           D1           0.01933
 ITU=  0
     Eigenvalues ---    0.01854   0.12132   0.19820   0.28475   0.36907
     Eigenvalues ---    0.49216
 Angle between quadratic step and forces=  61.49 degrees.
 Linear search not attempted -- first point.
 Iteration  1 RMS(Cart)=  0.00053972 RMS(Int)=  0.00000028
 Iteration  2 RMS(Cart)=  0.00000019 RMS(Int)=  0.00000000
 Variable       Old X    -DE/DX   Delta X   Delta X   Delta X     New X
                                 (Linear)    (Quad)   (Total)
    R1        2.66814  -0.00003   0.00000  -0.00020  -0.00020   2.66794
    R2        1.83249   0.00022   0.00000   0.00046   0.00046   1.83295
    R3        3.28535  -0.00003   0.00000  -0.00012  -0.00012   3.28523
    A1        1.78636   0.00004   0.00000   0.00029   0.00029   1.78665
    A2        1.92263   0.00005   0.00000   0.00023   0.00023   1.92287
    D1        1.55258  -0.00002   0.00000  -0.00126  -0.00126   1.55132
         Item               Value     Threshold  Converged?
 Maximum Force            0.000218     0.000450     YES
 RMS     Force            0.000095     0.000300     YES
 Maximum Displacement     0.000658     0.001800     YES
 RMS     Displacement     0.000540     0.001200     YES
 Predicted change in Energy=-7.856630D-08
 Optimization completed.
    -- Stationary point found.
                           ----------------------------
                           !   Optimized Parameters   !
                           ! (Angstroms and Degrees)  !
 --------------------------                            --------------------------
 ! Name  Definition              Value          Derivative Info.                !
 --------------------------------------------------------------------------------
 ! R1    R(1,2)                  1.4119         -DE/DX =    0.0                 !
 ! R2    R(1,4)                  0.9697         -DE/DX =    0.0002              !
 ! R3    R(2,3)                  1.7385         -DE/DX =    0.0                 !
 ! A1    A(2,1,4)              102.351          -DE/DX =    0.0                 !
 ! A2    A(1,2,3)              110.1588         -DE/DX =    0.0001              !
 ! D1    D(4,1,2,3)             88.9563         -DE/DX =    0.0                 !
 --------------------------------------------------------------------------------
 GradGradGradGradGradGradGradGradGradGradGradGradGradGradGradGradGradGrad


 ----------------------------------------------------------------------

 Electric dipole moment (input orientation):
 (Debye = 10**-18 statcoulomb cm , SI units = C m)
                  (au)            (Debye)         (10**-30 SI)
   Tot        0.716219D+00      0.182045D+01      0.607236D+01
   x         -0.160529D+00     -0.408024D+00     -0.136102D+01
   y         -0.348178D+00     -0.884980D+00     -0.295198D+01
   z          0.604956D+00      0.153765D+01      0.512903D+01

 Dipole polarizability, Alpha (input orientation).
 (esu units = cm**3 , SI units = C**2 m**2 J**-1)
 Alpha(0;0):
               (au)            (10**-24 esu)      (10**-40 SI)
   iso        0.240669D+02      0.356635D+01      0.396810D+01
   aniso      0.221467D+02      0.328181D+01      0.365150D+01
   xx         0.386233D+02      0.572338D+01      0.636812D+01
   yx        -0.694235D+00     -0.102875D+00     -0.114464D+00
   yy         0.185159D+02      0.274378D+01      0.305286D+01
   zx        -0.927371D+00     -0.137422D+00     -0.152903D+00
   zy        -0.501193D+00     -0.742691D-01     -0.826356D-01
   zz         0.150615D+02      0.223189D+01      0.248331D+01

 ----------------------------------------------------------------------

 Dipole orientation:
     8         -2.82110207         -0.46034590          0.73864208
     8         -0.98554960          1.14955793         -0.33742922
    17          1.95157574         -0.32245404         -0.33690582
     1         -2.72360075         -0.03200087          2.51769641

 Electric dipole moment (dipole orientation):
 (Debye = 10**-18 statcoulomb cm , SI units = C m)
                  (au)            (Debye)         (10**-30 SI)
   Tot        0.716219D+00      0.182045D+01      0.607236D+01
   x          0.000000D+00      0.000000D+00      0.000000D+00
   y          0.000000D+00      0.000000D+00      0.000000D+00
   z          0.716219D+00      0.182045D+01      0.607236D+01

 Dipole polarizability, Alpha (dipole orientation).
 (esu units = cm**3 , SI units = C**2 m**2 J**-1)
 Alpha(0;0):
               (au)            (10**-24 esu)      (10**-40 SI)
   iso        0.240669D+02      0.356635D+01      0.396810D+01
   aniso      0.221467D+02      0.328181D+01      0.365150D+01
   xx         0.370582D+02      0.549145D+01      0.611007D+01
   yx        -0.263279D+01     -0.390139D+00     -0.434088D+00
   yy         0.174696D+02      0.258873D+01      0.288035D+01
   zx        -0.535464D+01     -0.793476D+00     -0.882861D+00
   zy        -0.113982D+01     -0.168904D+00     -0.187931D+00
   zz         0.176730D+02      0.261887D+01      0.291388D+01

 ----------------------------------------------------------------------
 1\1\GINC-GAMBA\Freq\RB3LYP\Gen\Cl1H1O2\IRIKURA\29-Sep-2023\0\\#N Geom=
 AllCheck Guess=TCheck SCRF=Check GenChk RB3LYP/ChkBas Freq\\chlorine h
 ydroperoxide, B3LYP/pcseg-2\\0,1\O,-1.525426,-0.314232,-0.122874\O,-0.
 503238,0.647995,0.028011\Cl,1.054643,-0.123106,-0.002069\H,-1.699632,-
 0.577312,0.794068\\Version=ES64L-G16RevB.01\State=1-A\HF=-611.1976957\
 RMSD=2.415e-09\RMSF=9.238e-05\ZeroPoint=0.0169249\Thermal=0.0205978\Di
 pole=-0.1605289,-0.348178,0.6049561\DipoleDeriv=-0.6417052,0.0894083,0
 .0072106,-0.4038526,-0.2500259,-0.0330721,0.0876467,0.0310197,-0.04277
 43,0.7744546,-0.0177877,0.0074894,0.2491491,-0.0442675,0.0243742,-0.00
 04256,-0.0552558,-0.1390865,-0.42345,-0.0337548,0.0206206,0.1976296,-0
 .0007303,-0.0010747,-0.0009547,0.0069761,0.0218444,0.2907006,-0.037865
 9,-0.0353206,-0.0429261,0.2950237,0.0097726,-0.0862664,0.01726,0.16001
 64\Polar=38.6233058,-0.6942347,18.5159181,-0.9273705,-0.501193,15.0615
 459\Quadrupole=0.985528,-0.8260588,-0.1594692,0.6003723,-2.1960634,-0.
 7993152\PG=C01 [X(Cl1H1O2)]\NImag=0\\0.19622121,0.12696715,0.16028677,
 -0.04301938,-0.09309075,0.51109118,-0.10358581,-0.06843518,0.00987347,
 0.19840167,-0.08874659,-0.15104310,0.00549695,0.03243138,0.25549735,-0
 .02363124,-0.02778411,-0.04567690,-0.00934121,0.00794542,0.03105815,-0
 .05843323,-0.03025015,-0.00405647,-0.07607396,0.07767389,0.00723680,0.
 13604824,-0.00644064,0.03215146,0.00311649,0.05602812,-0.08269748,-0.0
 0690553,-0.04878095,0.05018896,-0.00667500,0.00346878,0.00024973,0.004
 72150,-0.00572045,-0.00228343,-0.00159946,0.00345569,0.00240563,-0.034
 20217,-0.02828182,0.03720238,-0.01874190,-0.02135868,0.02573565,-0.001
 54105,-0.00080653,0.00355296,0.05448512,-0.03177992,-0.04139512,0.0844
 7731,-0.02002432,-0.02175677,0.02674423,0.00135721,0.00035707,-0.00120
 402,0.05044703,0.06279483,0.07332562,0.11740609,-0.46566401,-0.0052537
 6,-0.00772192,0.01690219,-0.00158087,0.00033335,-0.00037193,-0.0664909
 9,-0.11001751,0.44913375\\-0.00005488,-0.00011157,0.00017906,-0.000014
 31,0.00006305,0.00003375,0.00002214,-0.00002944,-0.00001346,0.00004705
 ,0.00007796,-0.00019935\\\@


 WE HAVE SEEN THAT MAN ON THE AVERAGE DOES NOT LIVE ABOVE
 TWO-AND-TWENTY YEARS.  DURING THESE TWO AND TWENTY
 YEARS HE IS LIABLE TO TWO AND TWENTY THOUSAND EVILS,
 MANY OF WHICH ARE INCURABLE.  YET EVEN IN THIS DREADFUL STATE
 MEN STILL STRUT AND POSE ON THE STAGE OF LIFE.
 THEY MAKE LOVE AT THE RISK OF DESTRUCTION,
 INTRIGUE, CARRY ON WAR, AND FORM PROJECTS, JUST AS IF THEY
 WERE TO LIVE IN LUXURY AND HAPPINESS FOR A THOUSAND
 AGES.

                                              -- VOLTAIRE
 Job cpu time:       0 days  0 hours  2 minutes 24.9 seconds.
 Elapsed time:       0 days  0 hours  0 minutes 36.3 seconds.
 File lengths (MBytes):  RWF=     10 Int=      0 D2E=      0 Chk=      2 Scr=      1
 Normal termination of Gaussian 16 at Fri Sep 29 01:19:32 2023.
 AtFile(1): ccpvtz-f12.gbs
            -H     0
            S    3   1.00
                 82.6400000              0.0020060
                 12.4100000              0.0153430
                  2.8240000              0.0755790
            S    1   1.00
                  0.7977000              1.0000000
            S    1   1.00
                  0.2581000              1.0000000
            S    1   1.00
                  0.0898900              1.0000000
            P    1   1.00
                  1.5513000              1.0000000
            P    1   1.00
                  0.5580000              1.0000000
            P    1   1.00
                  0.2007000              1.0000000
            D    1   1.00
                  0.4648000              1.0000000
            ****
            -He     0
            S    4   1.00
                528.5000000              0.0009400
                 79.3100000              0.0072140
                 18.0500000              0.0359750
                  5.0850000              0.1277820
            S    1   1.00
                  1.6090000              1.0000000
            S    1   1.00
                  0.5363000              1.0000000
            S    1   1.00
                  0.1833000              1.0000000
            S    1   1.00
                  0.0481900              1.0000000
            P    1   1.00
                  3.7026000              1.0000000
            P    1   1.00
                  1.2284000              1.0000000
            P    1   1.00
                  0.4075000              1.0000000
            D    1   1.00
                  0.6525000              1.0000000
            ****
            -Li     0
            S    9   1.00
               6601.0000000              0.0001170
                989.7000000              0.0009110
                225.7000000              0.0047280
                 64.2900000              0.0191970
                 21.1800000              0.0630470
                  7.7240000              0.1632080
                  3.0030000              0.3148270
                  1.2120000              0.3939360
                  0.4930000              0.1969180
            S    9   1.00
               6601.0000000             -0.0000180
                989.7000000             -0.0001420
                225.7000000             -0.0007410
                 64.2900000             -0.0030200
                 21.1800000             -0.0101230
                  7.7240000             -0.0270940
                  3.0030000             -0.0573590
                  1.2120000             -0.0938950
                  0.4930000             -0.1210910
            S    1   1.00
                  0.0951500              1.0000000
            S    1   1.00
                  0.0479100              1.0000000
            S    1   1.00
                  0.0222000              1.0000000
            S    1   1.00
                  0.0064000              1.0000000
            P    2   1.00
                  6.2500000              0.0033880
                  1.3700000              0.0193160
            P    1   1.00
                  0.3672000              1.0000000
            P    1   1.00
                  0.1192000              1.0000000
            P    1   1.00
                  0.0447400              1.0000000
            P    1   1.00
                  0.0179500              1.0000000
            P    1   1.00
                  0.0075000              1.0000000
            D    1   1.00
                  0.2351180              1.0000000
            D    1   1.00
                  0.1194040              1.0000000
            D    1   1.00
                  0.0606390              1.0000000
            F    1   1.00
                  0.1637750              1.0000000
            F    1   1.00
                  0.0759100              1.0000000
            ****
            -Be     0
            S    9   1.00
              14630.0000000              0.0000920
               2191.0000000              0.0007130
                498.2000000              0.0037350
                140.9000000              0.0154680
                 45.8600000              0.0528740
                 16.4700000              0.1456940
                  6.3190000              0.3026810
                  2.5350000              0.4049360
                  1.0350000              0.2223870
            S    9   1.00
              14630.0000000             -0.0000170
               2191.0000000             -0.0001300
                498.2000000             -0.0006790
                140.9000000             -0.0028570
                 45.8600000             -0.0098130
                 16.4700000             -0.0286090
                  6.3190000             -0.0637600
                  2.5350000             -0.1172310
                  1.0350000             -0.1212020
            S    1   1.00
                  0.2528000              1.0000000
            S    1   1.00
                  0.1052000              1.0000000
            S    1   1.00
                  0.0426100              1.0000000
            S    1   1.00
                  0.0141000              1.0000000
            P    2   1.00
                 14.0300000              0.0040990
                  3.1680000              0.0256260
            P    1   1.00
                  0.9024000              1.0000000
            P    1   1.00
                  0.3036000              1.0000000
            P    1   1.00
                  0.1130000              1.0000000
            P    1   1.00
                  0.0428600              1.0000000
            P    1   1.00
                  0.0084000              1.0000000
            D    1   1.00
                  0.4670460              1.0000000
            D    1   1.00
                  0.2205970              1.0000000
            D    1   1.00
                  0.1041940              1.0000000
            F    1   1.00
                  0.3166400              1.0000000
            F    1   1.00
                  0.1457880              1.0000000
            ****
            -B     0
            S    9   1.00
              23870.0000000              0.0000880
               3575.0000000              0.0006870
                812.8000000              0.0036000
                229.7000000              0.0149490
                 74.6900000              0.0514350
                 26.8100000              0.1433020
                 10.3200000              0.3009350
                  4.1780000              0.4035260
                  1.7270000              0.2253400
            S    9   1.00
              23870.0000000             -0.0000180
               3575.0000000             -0.0001390
                812.8000000             -0.0007250
                229.7000000             -0.0030630
                 74.6900000             -0.0105810
                 26.8100000             -0.0313650
                 10.3200000             -0.0710120
                  4.1780000             -0.1321030
                  1.7270000             -0.1230720
            S    1   1.00
                  0.4704000              1.0000000
            S    1   1.00
                  0.1896000              1.0000000
            S    1   1.00
                  0.0739400              1.0000000
            S    1   1.00
                  0.0272100              1.0000000
            P    2   1.00
                 22.2600000              0.0050950
                  5.0580000              0.0332060
            P    1   1.00
                  1.4870000              1.0000000
            P    1   1.00
                  0.5071000              1.0000000
            P    1   1.00
                  0.1812000              1.0000000
            P    1   1.00
                  0.0646300              1.0000000
            P    1   1.00
                  0.0187800              1.0000000
            D    1   1.00
                  1.4403000              1.0000000
            D    1   1.00
                  0.5333000              1.0000000
            D    1   1.00
                  0.1975000              1.0000000
            F    1   1.00
                  0.8479000              1.0000000
            F    1   1.00
                  0.2484000              1.0000000
            ****
            -C     0
            S    9   1.00
              33980.0000000              0.0000910
               5089.0000000              0.0007040
               1157.0000000              0.0036930
                326.6000000              0.0153600
                106.1000000              0.0529290
                 38.1100000              0.1470430
                 14.7500000              0.3056310
                  6.0350000              0.3993450
                  2.5300000              0.2170510
            S    9   1.00
              33980.0000000             -0.0000190
               5089.0000000             -0.0001510
               1157.0000000             -0.0007850
                326.6000000             -0.0033240
                106.1000000             -0.0115120
                 38.1100000             -0.0341600
                 14.7500000             -0.0771730
                  6.0350000             -0.1414930
                  2.5300000             -0.1180190
            S    1   1.00
                  0.7355000              1.0000000
            S    1   1.00
                  0.2905000              1.0000000
            S    1   1.00
                  0.1111000              1.0000000
            S    1   1.00
                  0.0414500              1.0000000
            P    2   1.00
                 34.5100000              0.0053780
                  7.9150000              0.0361320
            P    1   1.00
                  2.3680000              1.0000000
            P    1   1.00
                  0.8132000              1.0000000
            P    1   1.00
                  0.2890000              1.0000000
            P    1   1.00
                  0.1007000              1.0000000
            P    1   1.00
                  0.0321800              1.0000000
            D    1   1.00
                  2.2805000              1.0000000
            D    1   1.00
                  0.7834000              1.0000000
            D    1   1.00
                  0.2691000              1.0000000
            F    1   1.00
                  1.0371000              1.0000000
            F    1   1.00
                  0.3459000              1.0000000
            ****
            -N     0
            S    9   1.00
              45840.0000000              0.0000920
               6868.0000000              0.0007170
               1563.0000000              0.0037490
                442.4000000              0.0155320
                144.3000000              0.0531460
                 52.1800000              0.1467870
                 20.3400000              0.3046630
                  8.3810000              0.3976840
                  3.5290000              0.2176410
            S    9   1.00
              45840.0000000             -0.0000200
               6868.0000000             -0.0001590
               1563.0000000             -0.0008240
                442.4000000             -0.0034780
                144.3000000             -0.0119660
                 52.1800000             -0.0353880
                 20.3400000             -0.0800770
                  8.3810000             -0.1467220
                  3.5290000             -0.1163600
            S    1   1.00
                  1.0540000              1.0000000
            S    1   1.00
                  0.4118000              1.0000000
            S    1   1.00
                  0.1552000              1.0000000
            S    1   1.00
                  0.0546400              1.0000000
            P    2   1.00
                 49.3300000              0.0055330
                 11.3700000              0.0379620
            P    1   1.00
                  3.4350000              1.0000000
            P    1   1.00
                  1.1820000              1.0000000
            P    1   1.00
                  0.4173000              1.0000000
            P    1   1.00
                  0.1428000              1.0000000
            P    1   1.00
                  0.0440200              1.0000000
            D    1   1.00
                  3.0521000              1.0000000
            D    1   1.00
                  1.0393000              1.0000000
            D    1   1.00
                  0.3539000              1.0000000
            F    1   1.00
                  1.3498000              1.0000000
            F    1   1.00
                  0.4638000              1.0000000
            ****
            -O     0
            S    9   1.00
              61420.0000000              0.0000900
               9199.0000000              0.0006980
               2091.0000000              0.0036640
                590.9000000              0.0152180
                192.3000000              0.0524230
                 69.3200000              0.1459210
                 26.9700000              0.3052580
                 11.1000000              0.3985080
                  4.6820000              0.2169800
            S    9   1.00
              61420.0000000             -0.0000200
               9199.0000000             -0.0001590
               2091.0000000             -0.0008290
                590.9000000             -0.0035080
                192.3000000             -0.0121560
                 69.3200000             -0.0362610
                 26.9700000             -0.0829920
                 11.1000000             -0.1520900
                  4.6820000             -0.1153310
            S    1   1.00
                  1.4280000              1.0000000
            S    1   1.00
                  0.5547000              1.0000000
[...]
            D    1   1.00
                 12.6860000              1.0000000
            D    1   1.00
                  3.0405000              1.0000000
            D    1   1.00
                  0.8085000              1.0000000
            D    1   1.00
                  0.2864000              1.0000000
            F    1   1.00
                  1.1691000              1.0000000
            F    1   1.00
                  0.4006000              1.0000000
            ****
            
 Initial command:
 /usr/local/apps/g16_b01_avx/g16/l1.exe "/wrk/irikura/Gau-193654.inp" -scrdir="/wrk/irikura/"
 Entering Link 1 = /usr/local/apps/g16_b01_avx/g16/l1.exe PID=    193798.
  
 Copyright (c) 1988-2017, Gaussian, Inc.  All Rights Reserved.
  
 This is part of the Gaussian(R) 16 program.  It is based on
 the Gaussian(R) 09 system (copyright 2009, Gaussian, Inc.),
 the Gaussian(R) 03 system (copyright 2003, Gaussian, Inc.),
 the Gaussian(R) 98 system (copyright 1998, Gaussian, Inc.),
 the Gaussian(R) 94 system (copyright 1995, Gaussian, Inc.),
 the Gaussian 92(TM) system (copyright 1992, Gaussian, Inc.),
 the Gaussian 90(TM) system (copyright 1990, Gaussian, Inc.),
 the Gaussian 88(TM) system (copyright 1988, Gaussian, Inc.),
 the Gaussian 86(TM) system (copyright 1986, Carnegie Mellon
 University), and the Gaussian 82(TM) system (copyright 1983,
 Carnegie Mellon University). Gaussian is a federally registered
 trademark of Gaussian, Inc.
  
 This software contains proprietary and confidential information,
 including trade secrets, belonging to Gaussian, Inc.
  
 This software is provided under written license and may be
 used, copied, transmitted, or stored only in accord with that
 written license.
  
 The following legend is applicable only to US Government
 contracts under FAR:
  
                    RESTRICTED RIGHTS LEGEND
  
 Use, reproduction and disclosure by the US Government is
 subject to restrictions as set forth in subparagraphs (a)
 and (c) of the Commercial Computer Software - Restricted
 Rights clause in FAR 52.227-19.
  
 Gaussian, Inc.
 340 Quinnipiac St., Bldg. 40, Wallingford CT 06492
  
  
 ---------------------------------------------------------------
 Warning -- This program may not be used in any manner that
 competes with the business of Gaussian, Inc. or will provide
 assistance to any competitor of Gaussian, Inc.  The licensee
 of this program is prohibited from giving any competitor of
 Gaussian, Inc. access to this program.  By using this program,
 the user acknowledges that Gaussian, Inc. is engaged in the
 business of creating and licensing software in the field of
 computational chemistry and represents and warrants to the
 licensee that it is not a competitor of Gaussian, Inc. and that
 it will not use this program in any manner prohibited above.
 ---------------------------------------------------------------
  

 Cite this work as:
 Gaussian 16, Revision B.01,
 M. J. Frisch, G. W. Trucks, H. B. Schlegel, G. E. Scuseria, 
 M. A. Robb, J. R. Cheeseman, G. Scalmani, V. Barone, 
 G. A. Petersson, H. Nakatsuji, X. Li, M. Caricato, A. V. Marenich, 
 J. Bloino, B. G. Janesko, R. Gomperts, B. Mennucci, H. P. Hratchian, 
 J. V. Ortiz, A. F. Izmaylov, J. L. Sonnenberg, D. Williams-Young, 
 F. Ding, F. Lipparini, F. Egidi, J. Goings, B. Peng, A. Petrone, 
 T. Henderson, D. Ranasinghe, V. G. Zakrzewski, J. Gao, N. Rega, 
 G. Zheng, W. Liang, M. Hada, M. Ehara, K. Toyota, R. Fukuda, 
 J. Hasegawa, M. Ishida, T. Nakajima, Y. Honda, O. Kitao, H. Nakai, 
 T. Vreven, K. Throssell, J. A. Montgomery, Jr., J. E. Peralta, 
 F. Ogliaro, M. J. Bearpark, J. J. Heyd, E. N. Brothers, K. N. Kudin, 
 V. N. Staroverov, T. A. Keith, R. Kobayashi, J. Normand, 
 K. Raghavachari, A. P. Rendell, J. C. Burant, S. S. Iyengar, 
 J. Tomasi, M. Cossi, J. M. Millam, M. Klene, C. Adamo, R. Cammi, 
 J. W. Ochterski, R. L. Martin, K. Morokuma, O. Farkas, 
 J. B. Foresman, and D. J. Fox, Gaussian, Inc., Wallingford CT, 2016.
 
 ******************************************
 Gaussian 16:  ES64L-G16RevB.01 20-Dec-2017
                29-Sep-2023 
 ******************************************
 %chk=hoocl.chk
 %mem=500mw
 %nprocs=4
 Will use up to    4 processors via shared memory.
 ---------------------------------
 # rohf/gen geom=check guess=check
 ---------------------------------
 1/29=2,38=1,172=1/1;
 2/12=2,40=1/2;
 3/5=7,11=2,14=-4,25=1,30=1,116=101/1,2,3;
 4/5=1/1;
 5/5=2,38=6/2;
 6/7=2,8=2,9=2,10=2,28=1/1;
 99/5=1,9=1/99;
 ----------------------------------------
 chlorine hydroperoxide, ROHF/cc-pVTZ-F12
 ----------------------------------------
 Structure from the checkpoint file:  "hoocl.chk"
 Charge =  0 Multiplicity = 1
 Redundant internal coordinates found in file.  (old form).
 O,0,-1.525426,-0.314232,-0.122874
 O,0,-0.503238,0.647995,0.028011
 Cl,0,1.054643,-0.123106,-0.002069
 H,0,-1.699632,-0.577312,0.794068
 Recover connectivity data from disk.
                           ----------------------------
                           !    Current Parameters    !
                           ! (Angstroms and Degrees)  !
 --------------------------                            --------------------------
 ! Name  Definition              Value                                          !
 --------------------------------------------------------------------------------
 ! R1    R(1,2)                  1.4119                                         !
 ! R2    R(1,4)                  0.9697                                         !
 ! R3    R(2,3)                  1.7385                                         !
 ! A1    A(2,1,4)              102.351                                          !
 ! A2    A(1,2,3)              110.1588                                         !
 ! D1    D(4,1,2,3)             88.9563                                         !
 --------------------------------------------------------------------------------
                          Input orientation:                          
 ---------------------------------------------------------------------
 Center     Atomic      Atomic             Coordinates (Angstroms)
 Number     Number       Type             X           Y           Z
 ---------------------------------------------------------------------
      1          8           0       -1.525426   -0.314232   -0.122874
      2          8           0       -0.503238    0.647995    0.028011
      3         17           0        1.054643   -0.123106   -0.002069
      4          1           0       -1.699632   -0.577312    0.794068
 ---------------------------------------------------------------------
                    Distance matrix (angstroms):
                    1          2          3          4
     1  O    0.000000
     2  O    1.411919   0.000000
     3  Cl   2.589957   1.738532   0.000000
     4  H    0.969712   1.876054   2.902786   0.000000
 Stoichiometry    ClHO2
 Framework group  C1[X(ClHO2)]
 Deg. of freedom     6
 Full point group                 C1      NOp   1
 Largest Abelian subgroup         C1      NOp   1
 Largest concise Abelian subgroup C1      NOp   1
                         Standard orientation:                         
 ---------------------------------------------------------------------
 Center     Atomic      Atomic             Coordinates (Angstroms)
 Number     Number       Type             X           Y           Z
 ---------------------------------------------------------------------
      1          8           0       -1.525426   -0.314232   -0.122874
      2          8           0       -0.503238    0.647995    0.028011
      3         17           0        1.054643   -0.123106   -0.002069
      4          1           0       -1.699632   -0.577312    0.794068
 ---------------------------------------------------------------------
 Rotational constants (GHZ):          50.5406004           6.0281295           5.4827663
 General basis read from cards:  (5D, 7F)
 There are   215 symmetry adapted cartesian basis functions of A   symmetry.
 There are   186 symmetry adapted basis functions of A   symmetry.
   186 basis functions,   306 primitive gaussians,   215 cartesian basis functions
    17 alpha electrons       17 beta electrons
       nuclear repulsion energy       102.8913013262 Hartrees.
 NAtoms=    4 NActive=    4 NUniq=    4 SFac= 1.00D+00 NAtFMM=   60 NAOKFM=F Big=F
 Integral buffers will be    131072 words long.
 Raffenetti 2 integral format.
 Two-electron integral symmetry is turned on.
 One-electron integrals computed using PRISM.
 NBasis=   186 RedAO= T EigKep=  3.16D-04  NBF=   186
 NBsUse=   186 1.00D-06 EigRej= -1.00D+00 NBFU=   186
 Initial guess from the checkpoint file:  "hoocl.chk"
 B after Tr=     0.000000    0.000000   -0.000000
         Rot=    1.000000   -0.000000   -0.000000    0.000000 Ang=   0.00 deg.
 Keep R1 and R2 ints in memory in canonical form, NReq=307503889.
 Requested convergence on RMS density matrix=1.00D-08 within 128 cycles.
 Requested convergence on MAX density matrix=1.00D-06.
 Requested convergence on             energy=1.00D-06.
 No special actions if energy rises.
 SCF Done:  E(ROHF) =  -609.718368374     A.U. after   13 cycles
            NFock= 13  Conv=0.58D-08     -V/T= 2.0005
 <Sx>= 0.0000 <Sy>= 0.0000 <Sz>= 0.0000 <S**2>=-0.0000 S=-0.0000
 <L.S>=  0.00000000000    
 Annihilation of the first spin contaminant:
 S**2 before annihilation    -0.0000,   after    -0.0000

 **********************************************************************

            Population analysis using the SCF Density.

 **********************************************************************

 Orbital symmetries:
       Occupied  (A) (A) (A) (A) (A) (A) (A) (A) (A) (A) (A) (A)
                 (A) (A) (A) (A) (A)
       Virtual   (A) (A) (A) (A) (A) (A) (A) (A) (A) (A) (A) (A)
                 (A) (A) (A) (A) (A) (A) (A) (A) (A) (A) (A) (A)
                 (A) (A) (A) (A) (A) (A) (A) (A) (A) (A) (A) (A)
                 (A) (A) (A) (A) (A) (A) (A) (A) (A) (A) (A) (A)
                 (A) (A) (A) (A) (A) (A) (A) (A) (A) (A) (A) (A)
                 (A) (A) (A) (A) (A) (A) (A) (A) (A) (A) (A) (A)
                 (A) (A) (A) (A) (A) (A) (A) (A) (A) (A) (A) (A)
                 (A) (A) (A) (A) (A) (A) (A) (A) (A) (A) (A) (A)
                 (A) (A) (A) (A) (A) (A) (A) (A) (A) (A) (A) (A)
                 (A) (A) (A) (A) (A) (A) (A) (A) (A) (A) (A) (A)
                 (A) (A) (A) (A) (A) (A) (A) (A) (A) (A) (A) (A)
                 (A) (A) (A) (A) (A) (A) (A) (A) (A) (A) (A) (A)
                 (A) (A) (A) (A) (A) (A) (A) (A) (A) (A) (A) (A)
                 (A) (A) (A) (A) (A) (A) (A) (A) (A) (A) (A) (A)
                 (A)
 The electronic state is 1-A.
 Alpha  occ. eigenvalues -- -104.89807 -20.70567 -20.66399 -10.61847  -8.08540
 Alpha  occ. eigenvalues --   -8.08296  -8.08277  -1.52620  -1.25930  -1.05290
 Alpha  occ. eigenvalues --   -0.76121  -0.67937  -0.66985  -0.57643  -0.51177
 Alpha  occ. eigenvalues --   -0.48317  -0.45807
 Alpha virt. eigenvalues --    0.04867   0.07143   0.09010   0.09646   0.10349
 Alpha virt. eigenvalues --    0.13410   0.14089   0.16032   0.17849   0.18967
 Alpha virt. eigenvalues --    0.21460   0.24868   0.26265   0.33153   0.34277
 Alpha virt. eigenvalues --    0.42578   0.46190   0.46839   0.47045   0.50185
 Alpha virt. eigenvalues --    0.52084   0.53228   0.55731   0.57456   0.59175
 Alpha virt. eigenvalues --    0.63987   0.64609   0.69398   0.73728   0.75961
 Alpha virt. eigenvalues --    0.78790   0.79806   0.88508   0.89889   1.09213
 Alpha virt. eigenvalues --    1.12345   1.13771   1.18226   1.18649   1.23811
 Alpha virt. eigenvalues --    1.25805   1.30315   1.33497   1.35471   1.36826
 Alpha virt. eigenvalues --    1.42262   1.43933   1.46530   1.48067   1.50416
 Alpha virt. eigenvalues --    1.55261   1.58364   1.61381   1.64306   1.66510
 Alpha virt. eigenvalues --    1.70009   1.71216   1.75575   1.79607   1.84444
 Alpha virt. eigenvalues --    1.88383   1.91840   1.94440   1.97195   2.02144
 Alpha virt. eigenvalues --    2.09937   2.12777   2.18666   2.19944   2.33818
 Alpha virt. eigenvalues --    2.37221   2.45539   2.47763   2.54382   2.60821
 Alpha virt. eigenvalues --    2.61505   2.65811   2.70969   2.76307   2.82210
 Alpha virt. eigenvalues --    2.93400   2.97369   3.04462   3.18553   3.19965
 Alpha virt. eigenvalues --    3.34293   3.39904   3.45939   3.46957   3.49389
 Alpha virt. eigenvalues --    3.52889   3.60842   3.62674   3.69656   3.71961
 Alpha virt. eigenvalues --    3.85042   3.86292   3.90935   3.92138   3.99591
 Alpha virt. eigenvalues --    4.04036   4.06433   4.07849   4.10991   4.20127
 Alpha virt. eigenvalues --    4.31344   4.45890   4.50755   4.83922   4.87377
 Alpha virt. eigenvalues --    4.95419   5.08155   5.16522   5.32494   5.43429
 Alpha virt. eigenvalues --    5.48325   5.76319   5.98362   6.05284   6.08781
 Alpha virt. eigenvalues --    6.53949   6.60187   6.73542   6.77576   6.87306
 Alpha virt. eigenvalues --    6.94788   6.99365   7.10390   7.12052   7.17389
 Alpha virt. eigenvalues --    7.23499   7.47884   7.51661   7.77243   8.14218
 Alpha virt. eigenvalues --    8.83549   9.65023   9.84269  10.03301  10.18240
 Alpha virt. eigenvalues --   10.41257  10.50694  11.13725  11.15578  11.19681
 Alpha virt. eigenvalues --   11.26296  11.28489  11.39556  11.53322  11.58831
 Alpha virt. eigenvalues --   11.92023  12.88155  22.12765  22.13758  22.17528
 Alpha virt. eigenvalues --   22.23701  22.32306  23.43431  28.32078  28.34517
 Alpha virt. eigenvalues --   28.65562  37.27303  37.44352  37.54474  37.67894
 Alpha virt. eigenvalues --   37.84571  37.99697  41.52683  43.14078
          Condensed to atoms (all electrons):
               1          2          3          4
     1  O    8.091378   0.055613  -0.029302   0.239248
     2  O    0.055613   8.082022   0.055653  -0.017183
     3  Cl  -0.029302   0.055653  16.845659   0.003684
     4  H    0.239248  -0.017183   0.003684   0.365513
          Atomic-Atomic Spin Densities.
               1          2          3          4
     1  O    0.000000   0.000000   0.000000   0.000000
     2  O    0.000000   0.000000   0.000000   0.000000
     3  Cl   0.000000   0.000000   0.000000   0.000000
     4  H    0.000000   0.000000   0.000000   0.000000
 Mulliken charges and spin densities:
               1          2
     1  O   -0.356938   0.000000
     2  O   -0.176104   0.000000
     3  Cl   0.124305   0.000000
     4  H    0.408737   0.000000
 Sum of Mulliken charges =  -0.00000   0.00000
 Mulliken charges and spin densities with hydrogens summed into heavy atoms:
               1          2
     1  O    0.051800   0.000000
     2  O   -0.176104   0.000000
     3  Cl   0.124305   0.000000
 Electronic spatial extent (au):  <R**2>=            221.6377
 Charge=              0.0000 electrons
 Dipole moment (field-independent basis, Debye):
    X=             -0.2675    Y=             -0.9308    Z=              1.5561  Tot=              1.8328
 Quadrupole moment (field-independent basis, Debye-Ang):
   XX=            -21.1916   YY=            -23.8951   ZZ=            -22.7749
   XY=              0.8129   XZ=             -3.0902   YZ=             -1.1515
 Traceless Quadrupole moment (field-independent basis, Debye-Ang):
   XX=              1.4289   YY=             -1.2745   ZZ=             -0.1544
   XY=              0.8129   XZ=             -3.0902   YZ=             -1.1515
 Octapole moment (field-independent basis, Debye-Ang**2):
  XXX=             -3.2472  YYY=              0.2216  ZZZ=              1.6037  XYY=             -1.8859
  XXY=             -4.0284  XXZ=              5.3621  XZZ=             -4.4632  YZZ=             -0.5868
  YYZ=              0.7953  XYZ=              1.9996
 Hexadecapole moment (field-independent basis, Debye-Ang**3):
 XXXX=           -181.7336 YYYY=            -41.5136 ZZZZ=            -23.7415 XXXY=              1.5374
 XXXZ=            -10.5728 YYYX=              1.5299 YYYZ=             -0.7940 ZZZX=             -3.3342
 ZZZY=             -1.2808 XXYY=            -36.8565 XXZZ=            -33.9754 YYZZ=            -10.8664
 XXYZ=             -3.3050 YYXZ=             -1.5057 ZZXY=              1.7718
 N-N= 1.028913013262D+02 E-N=-1.656408191959D+03  KE= 6.094200422974D+02
                          Isotropic Fermi Contact Couplings
        Atom                 a.u.       MegaHertz       Gauss      10(-4) cm-1
     1  O(17)              0.00000      -0.00000      -0.00000      -0.00000
     2  O(17)              0.00000      -0.00000      -0.00000      -0.00000
     3  Cl(35)             0.00000       0.00000       0.00000       0.00000
     4  H(1)               0.00000       0.00000       0.00000       0.00000
 --------------------------------------------------------
       Center         ----  Spin Dipole Couplings  ----
                      3XX-RR        3YY-RR        3ZZ-RR
 --------------------------------------------------------
     1   Atom        0.000000      0.000000      0.000000
     2   Atom        0.000000      0.000000      0.000000
     3   Atom        0.000000      0.000000      0.000000
     4   Atom        0.000000      0.000000      0.000000
 --------------------------------------------------------
                        XY            XZ            YZ
 --------------------------------------------------------
     1   Atom        0.000000      0.000000      0.000000
     2   Atom        0.000000      0.000000      0.000000
     3   Atom        0.000000      0.000000      0.000000
     4   Atom        0.000000      0.000000      0.000000
 --------------------------------------------------------


 ---------------------------------------------------------------------------------
              Anisotropic Spin Dipole Couplings in Principal Axis System
 ---------------------------------------------------------------------------------

       Atom             a.u.   MegaHertz   Gauss  10(-4) cm-1        Axes

              Baa     0.0000    -0.000    -0.000    -0.000  1.0000  0.0000  0.0000
     1 O(17)  Bbb     0.0000    -0.000    -0.000    -0.000 -0.0000  1.0000  0.0000
              Bcc     0.0000    -0.000    -0.000    -0.000  0.0000  0.0000  1.0000
 
              Baa     0.0000    -0.000    -0.000    -0.000  1.0000  0.0000  0.0000
     2 O(17)  Bbb     0.0000    -0.000    -0.000    -0.000 -0.0000  1.0000  0.0000
              Bcc     0.0000    -0.000    -0.000    -0.000  0.0000  0.0000  1.0000
 
              Baa     0.0000     0.000     0.000     0.000  1.0000  0.0000  0.0000
     3 Cl(35) Bbb     0.0000     0.000     0.000     0.000 -0.0000  1.0000  0.0000
              Bcc     0.0000     0.000     0.000     0.000  0.0000  0.0000  1.0000
 
              Baa     0.0000     0.000     0.000     0.000  1.0000  0.0000  0.0000
     4 H(1)   Bbb     0.0000     0.000     0.000     0.000 -0.0000  1.0000  0.0000
              Bcc     0.0000     0.000     0.000     0.000  0.0000  0.0000  1.0000
 

 ---------------------------------------------------------------------------------

 1\1\GINC-GAMBA\SP\ROHF\Gen\Cl1H1O2\IRIKURA\29-Sep-2023\0\\# rohf/gen g
 eom=check guess=check\\chlorine hydroperoxide, ROHF/cc-pVTZ-F12\\0,1\O
 ,0,-1.525426,-0.314232,-0.122874\O,0,-0.503238,0.647995,0.028011\Cl,0,
 1.054643,-0.123106,-0.002069\H,0,-1.699632,-0.577312,0.794068\\Version
 =ES64L-G16RevB.01\State=1-A\HF=-609.7183684\RMSD=5.826e-09\Dipole=-0.1
 052569,-0.3661862,0.612207\Quadrupole=1.0623553,-0.9475872,-0.114768,0
 .6043471,-2.2974821,-0.8561234\PG=C01 [X(Cl1H1O2)]\\@


 SIC AS THE CAWSE OF EWERY THING IS, SIC WILBE THE EFFECT.
 -- PROVERBS AND REASONS OF THE YEAR 1585
           AS REPRINTED IN PAISLEY MAGAZINE 1828.
 Job cpu time:       0 days  0 hours  0 minutes 23.3 seconds.
 Elapsed time:       0 days  0 hours  0 minutes  8.6 seconds.
 File lengths (MBytes):  RWF=     16 Int=      0 D2E=      0 Chk=      4 Scr=      1
 Normal termination of Gaussian 16 at Fri Sep 29 01:19:40 2023.
