 Entering Gaussian System, Link 0=g16
 AtFile(1): pcseg2.gbs
            -H     0
            S   4   1.00
                  0.754732D+02           0.427821D-02
                  0.113575D+02           0.328672D-01
                  0.260081D+01           0.159578D+00
                  0.735503D+00           0.500000D+00
            S   1   1.00
                  0.231761D+00           1.0000000
            S   1   1.00
                  0.741675D-01           1.0000000
            P   1   1.00
                  0.160000D+01           1.0000000
            P   1   1.00
                  0.450000D+00           1.0000000
            D   1   1.00
                  0.125000D+01           1.0000000
            ****
            -C     0
            S   7   1.00
                  0.731999D+04           0.695369D-03
                  0.109818D+04           0.537138D-02
                  0.250014D+03           0.274734D-01
                  0.707586D+02           0.105078D+00
                  0.228595D+02           0.291262D+00
                  0.803936D+01           0.500000D+00
                  0.289309D+01           0.362224D+00
            S   2   1.00
                  0.521640D+01          -0.957844D-01
                  0.556124D+00           0.500000D+00
            S   1   1.00
                  0.228813D+00           1.0000000
            S   1   1.00
                  0.936338D-01           1.0000000
            P   4   1.00
                  0.339855D+02           0.818395D-02
                  0.772957D+01           0.586921D-01
                  0.224954D+01           0.222514D+00
                  0.767681D+00           0.500000D+00
            P   1   1.00
                  0.263283D+00           1.0000000
            P   1   1.00
                  0.848744D-01           1.0000000
            D   1   1.00
                  0.140000D+01           1.0000000
            D   1   1.00
                  0.450000D+00           1.0000000
            F   1   1.00
                  0.950000D+00           1.0000000
            ****
            -O     0
            S   7   1.00
                  0.135887D+05           0.665492D-03
                  0.203847D+04           0.514222D-02
                  0.464041D+03           0.263472D-01
                  0.131339D+03           0.101500D+00
                  0.425340D+02           0.285877D+00
                  0.150429D+02           0.500000D+00
                  0.546616D+01           0.368211D+00
            S   2   1.00
                  0.100915D+02          -0.100084D+00
                  0.110429D+01           0.500000D+00
            S   1   1.00
                  0.448082D+00           1.0000000
            S   1   1.00
                  0.175325D+00           1.0000000
            P   4   1.00
                  0.608220D+02           0.908253D-02
                  0.140332D+02           0.645878D-01
                  0.418244D+01           0.241502D+00
                  0.142490D+01           0.500000D+00
            P   1   1.00
                  0.478741D+00           1.0000000
            P   1   1.00
                  0.146257D+00           1.0000000
            D   1   1.00
                  0.220000D+01           1.0000000
            D   1   1.00
                  0.650000D+00           1.0000000
            F   1   1.00
                  0.110000D+01           1.0000000
            ****
            -N     0
            S   7   1.00
                  0.101643D+05           0.682757D-03
                  0.152481D+04           0.527488D-02
                  0.347119D+03           0.270037D-01
                  0.982389D+02           0.103673D+00
                  0.317799D+02           0.289575D+00
                  0.112240D+02           0.500000D+00
                  0.406611D+01           0.364621D+00
            S   2   1.00
                  0.747898D+01          -0.975681D-01
                  0.805040D+00           0.500000D+00
            S   1   1.00
                  0.324626D+00           1.0000000
            S   1   1.00
                  0.128132D+00           1.0000000
            P   4   1.00
                  0.482704D+02           0.829547D-02
                  0.110815D+02           0.596223D-01
                  0.326643D+01           0.227889D+00
                  0.111680D+01           0.500000D+00
            P   1   1.00
                  0.382049D+00           1.0000000
            P   1   1.00
                  0.121222D+00           1.0000000
            D   1   1.00
                  0.180000D+01           1.0000000
            D   1   1.00
                  0.550000D+00           1.0000000
            F   1   1.00
                  0.102000D+01           1.0000000
            ****
            -F     0
            S   7   1.00
                  0.174507D+05           0.655972D-03
                  0.261768D+04           0.506944D-02
                  0.595857D+03           0.259899D-01
                  0.168651D+03           0.100353D+00
                  0.546654D+02           0.284095D+00
                  0.193717D+02           0.500000D+00
                  0.706202D+01           0.370721D+00
            S   2   1.00
                  0.131197D+02          -0.101997D+00
                  0.145046D+01           0.500000D+00
            S   1   1.00
                  0.588255D+00           1.0000000
            S   1   1.00
                  0.227960D+00           1.0000000
            P   4   1.00
                  0.779407D+02           0.931135D-02
                  0.180425D+02           0.663964D-01
                  0.542342D+01           0.246386D+00
                  0.184876D+01           0.500000D+00
            P   1   1.00
                  0.617455D+00           1.0000000
            P   1   1.00
                  0.185496D+00           1.0000000
            D   1   1.00
                  0.280000D+01           1.0000000
            D   1   1.00
                  0.800000D+00           1.0000000
            F   1   1.00
                  0.120000D+01           1.0000000
            ****
            -Cl     0
            S   8   1.00
                  0.154272D+06           0.222473D-03
                  0.231232D+05           0.172590D-02
                  0.526257D+04           0.899286D-02
                  0.148995D+04           0.367724D-01
                  0.485417D+03           0.121446D+00
                  0.174634D+03           0.304148D+00
                  0.672393D+02           0.500000D+00
                  0.265780D+02           0.360252D+00
            S   3   1.00
                  0.131826D+03          -0.531330D-01
                  0.400703D+02          -0.233346D+00
                  0.789448D+01           0.500000D+00
            S   2   1.00
                  0.427711D+01           0.500000D+00
                  0.196233D+01           0.370517D+00
            S   1   1.00
                  0.520793D+00           1.0000000
            S   1   1.00
                  0.181633D+00           1.0000000
            P   7   1.00
                  0.124440D+04           0.988206D-03
                  0.295109D+03           0.829674D-02
                  0.947224D+02           0.430906D-01
                  0.352588D+02           0.148443D+00
                  0.144211D+02           0.344744D+00
                  0.610371D+01           0.500000D+00
                  0.258886D+01           0.348278D+00
            P   2   1.00
                  0.109447D+02          -0.196768D-01
                  0.104413D+01           0.500000D+00
            P   1   1.00
                  0.376184D+00           1.0000000
            P   1   1.00
                  0.120613D+00           1.0000000
            D   1   1.00
                  0.231000D+01           1.0000000
            D   1   1.00
                  0.520000D+00           1.0000000
            F   1   1.00
                  0.720000D+00           1.0000000
            ****
            -S     0
            S   8   1.00
                  0.134700D+06           0.226231D-03
                  0.201904D+05           0.175488D-02
                  0.459528D+04           0.914190D-02
                  0.130109D+04           0.373551D-01
                  0.423902D+03           0.123121D+00
                  0.152485D+03           0.306801D+00
                  0.586925D+02           0.500000D+00
                  0.231461D+02           0.354358D+00
            S   3   1.00
                  0.116327D+03          -0.491772D-01
                  0.352841D+02          -0.215962D+00
                  0.677831D+01           0.500000D+00
            S   2   1.00
                  0.360404D+01           0.500000D+00
                  0.164871D+01           0.366278D+00
            S   1   1.00
                  0.421821D+00           1.0000000
            S   1   1.00
                  0.147554D+00           1.0000000
            P   7   1.00
                  0.104863D+04           0.105273D-02
                  0.248717D+03           0.879338D-02
                  0.797887D+02           0.453358D-01
                  0.296023D+02           0.154476D+00
                  0.120627D+02           0.352366D+00
                  0.507628D+01           0.500000D+00
                  0.213375D+01           0.346429D+00
            P   2   1.00
                  0.928958D+01          -0.185932D-01
                  0.837819D+00           0.500000D+00
            P   1   1.00
                  0.301495D+00           1.0000000
            P   1   1.00
                  0.974740D-01           1.0000000
            D   1   1.00
                  0.210000D+01           1.0000000
            D   1   1.00
                  0.480000D+00           1.0000000
            F   1   1.00
                  0.660000D+00           1.0000000
            ****
            -Br     0
            S    10   1.00
                  0.233625D+07           0.532336D-04
                  0.349961D+06           0.413715D-03
                  0.796444D+05           0.217123D-02
                  0.225555D+05           0.910109D-02
                  0.735546D+04           0.323789D-01
                  0.265352D+04           0.988755D-01
                  0.103517D+04           0.248138D+00
                  0.422205D+03           0.474328D+00
                  0.180035D+03           0.500000D+00
                  0.793308D+02           0.187769D+00
            S    4   1.00
                  0.620834D+03          -0.226511D-01
                  0.190829D+03          -0.109497D+00
                  0.312505D+02           0.500000D+00
                  0.135270D+02           0.492812D+00
            S    2   1.00
                  0.216097D+02          -0.165418D+00
                  0.372566D+01           0.500000D+00
            S    1   1.00
                  0.169770D+01           1.0000000
            S    1   1.00
                  0.489332D+00           1.0000000
            S    1   1.00
                  0.175712D+00           1.0000000
            P    8   1.00
                  0.960829D+04           0.478974D-03
                  0.227618D+04           0.417853D-02
                  0.736723D+03           0.229315D-01
                  0.281579D+03           0.892653D-01
                  0.118395D+03           0.255288D+00
                  0.527481D+02           0.479074D+00
                  0.245098D+02           0.500000D+00
                  0.112009D+02           0.200944D+00
            P    4   1.00
                  0.587849D+02          -0.189674D-01
                  0.918962D+01           0.264104D+00
                  0.413895D+01           0.500000D+00
                  0.184225D+01           0.319316D+00
            P    1   1.00
                  0.713862D+00           1.0000000
            P    1   1.00
                  0.274232D+00           1.0000000
            P    1   1.00
                  0.944411D-01           1.0000000
            D    7   1.00
                  0.398470D+03           0.204066D-02
                  0.118967D+03           0.175171D-01
                  0.450197D+02           0.829708D-01
                  0.190320D+02           0.236284D+00
                  0.855686D+01           0.428468D+00
                  0.382950D+01           0.500000D+00
                  0.166291D+01           0.349360D+00
            D    1   1.00
                  0.672953D+00           1.0000000
            D    1   1.00
                  0.252000D+00           1.0000000
            F    1   1.00
                  0.530000D+00           1.0000000
            ****
            -Si     0
            S    8   1.00
                  0.996133D+05           0.235546D-03
                  0.149311D+05           0.182707D-02
                  0.339820D+04           0.951425D-02
                  0.962140D+03           0.388172D-01
                  0.313430D+03           0.127328D+00
                  0.112683D+03           0.313522D+00
                  0.433372D+02           0.500000D+00
                  0.170029D+02           0.340347D+00
            S    3   1.00
                  0.884208D+02          -0.404451D-01
                  0.266756D+02          -0.178059D+00
                  0.479640D+01           0.500000D+00
            S    2   1.00
                  0.239385D+01           0.500000D+00
                  0.108333D+01           0.338016D+00
            S    1   1.00
                  0.252420D+00           1.0000000
            S    1   1.00
                  0.891210D-01           1.0000000
            P    7   1.00
                  0.709901D+03           0.123028D-02
                  0.168426D+03           0.101366D-01
                  0.539946D+02           0.511840D-01
                  0.198646D+02           0.169967D+00
                  0.801369D+01           0.370717D+00
                  0.331870D+01           0.500000D+00
                  0.136112D+01           0.344128D+00
            P    2   1.00
                  0.622158D+01          -0.166609D-01
                  0.503049D+00           0.500000D+00
            P    1   1.00
                  0.179848D+00           1.0000000
            P    1   1.00
                  0.591912D-01           1.0000000
            D    1   1.00
                  0.168000D+01           1.0000000
            D    1   1.00
                  0.380000D+00           1.0000000
            F    1   1.00
                  0.540000D+00           1.0000000
            ****
            -P     0
            S    8   1.00
                  0.116416D+06           0.230715D-03
                  0.174500D+05           0.178960D-02
                  0.397149D+04           0.932116D-02
                  0.112447D+04           0.380591D-01
                  0.366347D+03           0.125148D+00
                  0.131757D+03           0.310022D+00
                  0.506988D+02           0.500000D+00
                  0.199436D+02           0.347528D+00
            S    3   1.00
                  0.101878D+03          -0.446755D-01
                  0.308249D+02          -0.196376D+00
                  0.573688D+01           0.500000D+00
            S    2   1.00
                  0.296868D+01           0.500000D+00
                  0.135315D+01           0.355098D+00
            S    1   1.00
                  0.332196D+00           1.0000000
            S    1   1.00
                  0.116229D+00           1.0000000
            P    7   1.00
                  0.873928D+03           0.112375D-02
                  0.207298D+03           0.933330D-02
                  0.664628D+02           0.477213D-01
                  0.245665D+02           0.160733D+00
                  0.996820D+01           0.359760D+00
                  0.416536D+01           0.500000D+00
                  0.173022D+01           0.346593D+00
            P    2   1.00
                  0.772530D+01          -0.175718D-01
                  0.657252D+00           0.500000D+00
            P    1   1.00
                  0.239903D+00           1.0000000
            P    1   1.00
                  0.800988D-01           1.0000000
            D    1   1.00
                  0.189000D+01           1.0000000
            D    1   1.00
                  0.430000D+00           1.0000000
            F    1   1.00
                  0.600000D+00           1.0000000
            ****
            
 Initial command:
 /usr/local/apps/g16_b01_avx/g16/l1.exe "/wrk/irikura/Gau-29873.inp" -scrdir="/wrk/irikura/"
 Entering Link 1 = /usr/local/apps/g16_b01_avx/g16/l1.exe PID=     29875.
  
 Copyright (c) 1988-2017, Gaussian, Inc.  All Rights Reserved.
  
 This is part of the Gaussian(R) 16 program.  It is based on
 the Gaussian(R) 09 system (copyright 2009, Gaussian, Inc.),
 the Gaussian(R) 03 system (copyright 2003, Gaussian, Inc.),
 the Gaussian(R) 98 system (copyright 1998, Gaussian, Inc.),
 the Gaussian(R) 94 system (copyright 1995, Gaussian, Inc.),
 the Gaussian 92(TM) system (copyright 1992, Gaussian, Inc.),
 the Gaussian 90(TM) system (copyright 1990, Gaussian, Inc.),
 the Gaussian 88(TM) system (copyright 1988, Gaussian, Inc.),
 the Gaussian 86(TM) system (copyright 1986, Carnegie Mellon
 University), and the Gaussian 82(TM) system (copyright 1983,
 Carnegie Mellon University). Gaussian is a federally registered
 trademark of Gaussian, Inc.
  
 This software contains proprietary and confidential information,
 including trade secrets, belonging to Gaussian, Inc.
  
 This software is provided under written license and may be
 used, copied, transmitted, or stored only in accord with that
 written license.
  
 The following legend is applicable only to US Government
 contracts under FAR:
  
                    RESTRICTED RIGHTS LEGEND
  
 Use, reproduction and disclosure by the US Government is
 subject to restrictions as set forth in subparagraphs (a)
 and (c) of the Commercial Computer Software - Restricted
 Rights clause in FAR 52.227-19.
  
 Gaussian, Inc.
 340 Quinnipiac St., Bldg. 40, Wallingford CT 06492
  
  
 ---------------------------------------------------------------
 Warning -- This program may not be used in any manner that
 competes with the business of Gaussian, Inc. or will provide
 assistance to any competitor of Gaussian, Inc.  The licensee
 of this program is prohibited from giving any competitor of
 Gaussian, Inc. access to this program.  By using this program,
 the user acknowledges that Gaussian, Inc. is engaged in the
 business of creating and licensing software in the field of
 computational chemistry and represents and warrants to the
 licensee that it is not a competitor of Gaussian, Inc. and that
 it will not use this program in any manner prohibited above.
 ---------------------------------------------------------------
  

 Cite this work as:
 Gaussian 16, Revision B.01,
 M. J. Frisch, G. W. Trucks, H. B. Schlegel, G. E. Scuseria, 
 M. A. Robb, J. R. Cheeseman, G. Scalmani, V. Barone, 
 G. A. Petersson, H. Nakatsuji, X. Li, M. Caricato, A. V. Marenich, 
 J. Bloino, B. G. Janesko, R. Gomperts, B. Mennucci, H. P. Hratchian, 
 J. V. Ortiz, A. F. Izmaylov, J. L. Sonnenberg, D. Williams-Young, 
 F. Ding, F. Lipparini, F. Egidi, J. Goings, B. Peng, A. Petrone, 
 T. Henderson, D. Ranasinghe, V. G. Zakrzewski, J. Gao, N. Rega, 
 G. Zheng, W. Liang, M. Hada, M. Ehara, K. Toyota, R. Fukuda, 
 J. Hasegawa, M. Ishida, T. Nakajima, Y. Honda, O. Kitao, H. Nakai, 
 T. Vreven, K. Throssell, J. A. Montgomery, Jr., J. E. Peralta, 
 F. Ogliaro, M. J. Bearpark, J. J. Heyd, E. N. Brothers, K. N. Kudin, 
 V. N. Staroverov, T. A. Keith, R. Kobayashi, J. Normand, 
 K. Raghavachari, A. P. Rendell, J. C. Burant, S. S. Iyengar, 
 J. Tomasi, M. Cossi, J. M. Millam, M. Klene, C. Adamo, R. Cammi, 
 J. W. Ochterski, R. L. Martin, K. Morokuma, O. Farkas, 
 J. B. Foresman, and D. J. Fox, Gaussian, Inc., Wallingford CT, 2016.
 
 ******************************************
 Gaussian 16:  ES64L-G16RevB.01 20-Dec-2017
                16-Jun-2022 
 ******************************************
 %mem=1000mw
 %nprocs=12
 Will use up to   12 processors via shared memory.
 --------------------
 # b3lyp/gen opt freq
 --------------------
 1/18=20,19=15,26=3,38=1/1,3;
 2/9=110,12=2,17=6,18=5,40=1/2;
 3/5=7,11=2,25=1,30=1,71=1,74=-5/1,2,3;
 4//1;
 5/5=2,38=5/2;
 6/7=2,8=2,9=2,10=2,28=1/1;
 7//1,2,3,16;
 1/18=20,19=15,26=3/3(2);
 2/9=110/2;
 99//99;
 2/9=110/2;
 3/5=7,6=1,11=2,25=1,30=1,71=1,74=-5,82=7/1,2,3;
 4/5=5,16=3,69=1/1;
 5/5=2,38=5/2;
 7//1,2,3,16;
 1/18=20,19=15,26=3/3(-5);
 2/9=110/2;
 6/7=2,8=2,9=2,10=2,19=2,28=1/1;
 99/9=1/99;
 -------------------------------------
 chlorine hydroperoxide, B3LYP/pcseg-2
 -------------------------------------
 Symbolic Z-matrix:
 Charge =  0 Multiplicity = 1
 O                    -1.55942  -0.34954  -0.06602 
 O                    -0.56455   0.6325    0.01393 
 Cl                    1.02031  -0.11245  -0.00116 
 H                    -1.69332  -0.58892   0.86702 
 

 GradGradGradGradGradGradGradGradGradGradGradGradGradGradGradGradGradGrad
 Berny optimization.
 Initialization pass.
                           ----------------------------
                           !    Initial Parameters    !
                           ! (Angstroms and Degrees)  !
 --------------------------                            --------------------------
 ! Name  Definition              Value          Derivative Info.                !
 --------------------------------------------------------------------------------
 ! R1    R(1,2)                  1.4002         estimate D2E/DX2                !
 ! R2    R(1,4)                  0.9725         estimate D2E/DX2                !
 ! R3    R(2,3)                  1.7513         estimate D2E/DX2                !
 ! A1    A(2,1,4)              102.4552         estimate D2E/DX2                !
 ! A2    A(1,2,3)              110.1311         estimate D2E/DX2                !
 ! D1    D(4,1,2,3)             87.1202         estimate D2E/DX2                !
 --------------------------------------------------------------------------------
 Trust Radius=3.00D-01 FncErr=1.00D-07 GrdErr=1.00D-06 EigMax=2.50D+02 EigMin=1.00D-04
 Number of steps in this run=     20 maximum allowed number of steps=    100.
 GradGradGradGradGradGradGradGradGradGradGradGradGradGradGradGradGradGrad

                          Input orientation:                          
 ---------------------------------------------------------------------
 Center     Atomic      Atomic             Coordinates (Angstroms)
 Number     Number       Type             X           Y           Z
 ---------------------------------------------------------------------
      1          8           0       -1.559420   -0.349544   -0.066022
      2          8           0       -0.564546    0.632500    0.013928
      3         17           0        1.020314   -0.112453   -0.001160
      4          1           0       -1.693322   -0.588915    0.867017
 ---------------------------------------------------------------------
                    Distance matrix (angstroms):
                    1          2          3          4
     1  O    0.000000
     2  O    1.400206   0.000000
     3  Cl   2.591418   1.751275   0.000000
     4  H    0.972517   1.869158   2.888697   0.000000
 Stoichiometry    ClHO2
 Framework group  C1[X(ClHO2)]
 Deg. of freedom     6
 Full point group                 C1      NOp   1
 Largest Abelian subgroup         C1      NOp   1
 Largest concise Abelian subgroup C1      NOp   1
                         Standard orientation:                         
 ---------------------------------------------------------------------
 Center     Atomic      Atomic             Coordinates (Angstroms)
 Number     Number       Type             X           Y           Z
 ---------------------------------------------------------------------
      1          8           0       -1.523235   -0.313697   -0.123885
      2          8           0       -0.515803    0.646263    0.031462
      3         17           0        1.058166   -0.120808   -0.003017
      4          1           0       -1.676514   -0.606779    0.790663
 ---------------------------------------------------------------------
 Rotational constants (GHZ):          50.6627804           6.0079553           5.4675341
 General basis read from cards:  (5D, 7F)
 There are   124 symmetry adapted cartesian basis functions of A   symmetry.
 There are   108 symmetry adapted basis functions of A   symmetry.
   108 basis functions,   190 primitive gaussians,   124 cartesian basis functions
    17 alpha electrons       17 beta electrons
       nuclear repulsion energy       102.7859409715 Hartrees.
 NAtoms=    4 NActive=    4 NUniq=    4 SFac= 1.00D+00 NAtFMM=   60 NAOKFM=F Big=F
 Integral buffers will be    131072 words long.
 Raffenetti 2 integral format.
 Two-electron integral symmetry is turned on.
 One-electron integrals computed using PRISM.
 NBasis=   108 RedAO= T EigKep=  4.33D-03  NBF=   108
 NBsUse=   108 1.00D-06 EigRej= -1.00D+00 NBFU=   108
 ExpMin= 7.42D-02 ExpMax= 1.54D+05 ExpMxC= 1.49D+03 IAcc=3 IRadAn=         5 AccDes= 0.00D+00
 Harris functional with IExCor=  402 and IRadAn=       5 diagonalized for initial guess.
 HarFok:  IExCor=  402 AccDes= 0.00D+00 IRadAn=         5 IDoV= 1 UseB2=F ITyADJ=14
 ICtDFT=  3500011 ScaDFX=  1.000000  1.000000  1.000000  1.000000
 FoFCou: FMM=F IPFlag=           0 FMFlag=      100000 FMFlg1=           0
         NFxFlg=           0 DoJE=T BraDBF=F KetDBF=T FulRan=T
         wScrn=  0.000000 ICntrl=       500 IOpCl=  0 I1Cent=   200000004 NGrid=           0
         NMat0=    1 NMatS0=      1 NMatT0=    0 NMatD0=    1 NMtDS0=    0 NMtDT0=    0
 Petite list used in FoFCou.
 Keep R1 ints in memory in canonical form, NReq=28741811.
 Requested convergence on RMS density matrix=1.00D-08 within 128 cycles.
 Requested convergence on MAX density matrix=1.00D-06.
 Requested convergence on             energy=1.00D-06.
 No special actions if energy rises.
 Integral accuracy reduced to 1.0D-05 until final iterations.
 Initial convergence to 1.0D-05 achieved.  Increase integral accuracy.
 SCF Done:  E(RB3LYP) =  -611.197606739     A.U. after   14 cycles
            NFock= 14  Conv=0.48D-08     -V/T= 2.0014

 **********************************************************************

            Population analysis using the SCF Density.

 **********************************************************************

 Orbital symmetries:
       Occupied  (A) (A) (A) (A) (A) (A) (A) (A) (A) (A) (A) (A)
                 (A) (A) (A) (A) (A)
       Virtual   (A) (A) (A) (A) (A) (A) (A) (A) (A) (A) (A) (A)
                 (A) (A) (A) (A) (A) (A) (A) (A) (A) (A) (A) (A)
                 (A) (A) (A) (A) (A) (A) (A) (A) (A) (A) (A) (A)
                 (A) (A) (A) (A) (A) (A) (A) (A) (A) (A) (A) (A)
                 (A) (A) (A) (A) (A) (A) (A) (A) (A) (A) (A) (A)
                 (A) (A) (A) (A) (A) (A) (A) (A) (A) (A) (A) (A)
                 (A) (A) (A) (A) (A) (A) (A) (A) (A) (A) (A) (A)
                 (A) (A) (A) (A) (A) (A) (A)
 The electronic state is 1-A.
 Alpha  occ. eigenvalues -- -101.55966 -19.26525 -19.22794  -9.50115  -7.26642
 Alpha  occ. eigenvalues --   -7.25265  -7.25201  -1.18400  -0.95312  -0.79631
 Alpha  occ. eigenvalues --   -0.58024  -0.51092  -0.49108  -0.39197  -0.34793
 Alpha  occ. eigenvalues --   -0.33918  -0.30087
 Alpha virt. eigenvalues --   -0.11132  -0.01268   0.03119   0.24821   0.26701
 Alpha virt. eigenvalues --    0.27337   0.29704   0.31686   0.32667   0.33362
 Alpha virt. eigenvalues --    0.35288   0.36768   0.40295   0.49940   0.52710
 Alpha virt. eigenvalues --    0.54668   0.56291   0.61923   0.65404   0.72035
 Alpha virt. eigenvalues --    0.78997   0.83857   0.96954   1.12155   1.26927
 Alpha virt. eigenvalues --    1.37958   1.42578   1.52340   1.66517   1.70743
 Alpha virt. eigenvalues --    1.76741   1.80835   1.90345   1.95150   1.97758
 Alpha virt. eigenvalues --    2.09412   2.09587   2.09826   2.09917   2.13576
 Alpha virt. eigenvalues --    2.16578   2.17098   2.21119   2.23135   2.28831
 Alpha virt. eigenvalues --    2.34784   2.45902   2.53320   2.67720   2.86619
 Alpha virt. eigenvalues --    3.21342   3.37626   3.43690   3.46790   3.47749
 Alpha virt. eigenvalues --    3.50727   3.51707   3.56405   3.63214   3.66311
 Alpha virt. eigenvalues --    3.77728   3.88266   3.97318   3.97532   4.04051
 Alpha virt. eigenvalues --    4.12198   4.25144   4.27988   4.39522   4.42721
 Alpha virt. eigenvalues --    4.56723   4.75288   4.86145   4.95902   5.22161
 Alpha virt. eigenvalues --    5.28855   5.89092   5.99276   6.06476   6.10108
 Alpha virt. eigenvalues --    6.15188   6.21868   6.23356   6.46413   6.58504
 Alpha virt. eigenvalues --    6.62548   6.81358   6.92772   7.25072   9.75897
 Alpha virt. eigenvalues --   32.01518
          Condensed to atoms (all electrons):
               1          2          3          4
     1  O    7.870894   0.020520  -0.061231   0.313667
     2  O    0.020520   8.092908   0.040195  -0.027491
     3  Cl  -0.061231   0.040195  16.968841   0.001733
     4  H    0.313667  -0.027491   0.001733   0.492570
 Mulliken charges:
               1
     1  O   -0.143851
     2  O   -0.126132
     3  Cl   0.050461
     4  H    0.219522
 Sum of Mulliken charges =   0.00000
 Mulliken charges with hydrogens summed into heavy atoms:
               1
     1  O    0.075671
     2  O   -0.126132
     3  Cl   0.050461
 Electronic spatial extent (au):  <R**2>=            222.5761
 Charge=              0.0000 electrons
 Dipole moment (field-independent basis, Debye):
    X=             -0.4322    Y=             -0.9309    Z=              1.5266  Tot=              1.8395
 Quadrupole moment (field-independent basis, Debye-Ang):
   XX=            -21.6518   YY=            -23.8949   ZZ=            -23.0942
   XY=              0.8707   XZ=             -2.8940   YZ=             -1.1273
 Traceless Quadrupole moment (field-independent basis, Debye-Ang):
   XX=              1.2285   YY=             -1.0146   ZZ=             -0.2139
   XY=              0.8707   XZ=             -2.8940   YZ=             -1.1273
 Octapole moment (field-independent basis, Debye-Ang**2):
  XXX=             -3.0562  YYY=              0.1019  ZZZ=              1.5186  XYY=             -1.8801
  XXY=             -3.7923  XXZ=              5.0296  XZZ=             -4.0190  YZZ=             -0.6620
  YYZ=              0.8793  XYZ=              1.9414
 Hexadecapole moment (field-independent basis, Debye-Ang**3):
 XXXX=           -186.4108 YYYY=            -42.2162 ZZZZ=            -25.0718 XXXY=              1.8603
 XXXZ=             -9.6721 YYYX=              1.3890 YYYZ=             -0.7604 ZZZX=             -2.9059
 ZZZY=             -1.1794 XXYY=            -37.4765 XXZZ=            -34.9899 YYZZ=            -11.2597
 XXYZ=             -3.1338 YYXZ=             -1.5136 ZZXY=              1.6041
 N-N= 1.027859409715D+02 E-N=-1.657599694592D+03  KE= 6.103689844947D+02
 Calling FoFJK, ICntrl=      2127 FMM=F ISym2X=0 I1Cent= 0 IOpClX= 0 NMat=1 NMatS=1 NMatT=0.
 ***** Axes restored to original set *****
 -------------------------------------------------------------------
 Center     Atomic                   Forces (Hartrees/Bohr)
 Number     Number              X              Y              Z
 -------------------------------------------------------------------
      1        8          -0.002998684   -0.003216351    0.002477102
      2        8           0.005313996    0.001791259   -0.000100179
      3       17          -0.001838056    0.001218626   -0.000128213
      4        1          -0.000477256    0.000206466   -0.002248710
 -------------------------------------------------------------------
 Cartesian Forces:  Max     0.005313996 RMS     0.002365327

 GradGradGradGradGradGradGradGradGradGradGradGradGradGradGradGradGradGrad
 Berny optimization.
 FormGI is forming the generalized inverse of G from B-inverse, IUseBI=4.
 Internal  Forces:  Max     0.004567475 RMS     0.002370927
 Search for a local minimum.
 Step number   1 out of a maximum of   20
 All quantities printed in internal units (Hartrees-Bohrs-Radians)
 Mixed Optimization -- RFO/linear search
 Second derivative matrix not updated -- first step.
 The second derivative matrix:
                          R1        R2        R3        A1        A2
           R1           0.45586
           R2           0.00000   0.52866
           R3           0.00000   0.00000   0.30364
           A1           0.00000   0.00000   0.00000   0.16000
           A2           0.00000   0.00000   0.00000   0.00000   0.25000
           D1           0.00000   0.00000   0.00000   0.00000   0.00000
                          D1
           D1           0.01292
 ITU=  0
     Eigenvalues ---    0.01292   0.16000   0.25000   0.30364   0.45586
     Eigenvalues ---    0.52866
 RFO step:  Lambda=-1.09926450D-04 EMin= 1.29208067D-02
 Linear search not attempted -- first point.
 Iteration  1 RMS(Cart)=  0.02379124 RMS(Int)=  0.00037572
 Iteration  2 RMS(Cart)=  0.00027437 RMS(Int)=  0.00000002
 Iteration  3 RMS(Cart)=  0.00000002 RMS(Int)=  0.00000000
 Variable       Old X    -DE/DX   Delta X   Delta X   Delta X     New X
                                 (Linear)    (Quad)   (Total)
    R1        2.64601   0.00457   0.00000   0.01002   0.01002   2.65602
    R2        1.83779  -0.00214   0.00000  -0.00405  -0.00405   1.83374
    R3        3.30943  -0.00218   0.00000  -0.00718  -0.00718   3.30225
    A1        1.78818   0.00148   0.00000   0.00924   0.00924   1.79742
    A2        1.92215   0.00102   0.00000   0.00409   0.00409   1.92624
    D1        1.52053   0.00054   0.00000   0.04108   0.04108   1.56161
         Item               Value     Threshold  Converged?
 Maximum Force            0.004567     0.000450     NO 
 RMS     Force            0.002371     0.000300     NO 
 Maximum Displacement     0.040974     0.001800     NO 
 RMS     Displacement     0.023735     0.001200     NO 
 Predicted change in Energy=-5.507105D-05
 GradGradGradGradGradGradGradGradGradGradGradGradGradGradGradGradGradGrad

                          Input orientation:                          
 ---------------------------------------------------------------------
 Center     Atomic      Atomic             Coordinates (Angstroms)
 Number     Number       Type             X           Y           Z
 ---------------------------------------------------------------------
      1          8           0       -1.554157   -0.357793   -0.062764
      2          8           0       -0.556688    0.628882    0.020757
      3         17           0        1.028876   -0.105036   -0.011182
      4          1           0       -1.715005   -0.584465    0.866952
 ---------------------------------------------------------------------
                    Distance matrix (angstroms):
                    1          2          3          4
     1  O    0.000000
     2  O    1.405507   0.000000
     3  Cl   2.595883   1.747476   0.000000
     4  H    0.970374   1.878818   2.920592   0.000000
 Stoichiometry    ClHO2
 Framework group  C1[X(ClHO2)]
 Deg. of freedom     6
 Full point group                 C1      NOp   1
 Largest Abelian subgroup         C1      NOp   1
 Largest concise Abelian subgroup C1      NOp   1
                         Standard orientation:                         
 ---------------------------------------------------------------------
 Center     Atomic      Atomic             Coordinates (Angstroms)
 Number     Number       Type             X           Y           Z
 ---------------------------------------------------------------------
      1          8           0       -1.526507   -0.314067   -0.123147
      2          8           0       -0.510470    0.645225    0.028108
      3         17           0        1.059400   -0.121772   -0.001823
      4          1           0       -1.713979   -0.579136    0.791302
 ---------------------------------------------------------------------
 Rotational constants (GHZ):          50.9059956           5.9876870           5.4530978
 Basis read from rwf:  (5D, 7F)
 There are   124 symmetry adapted cartesian basis functions of A   symmetry.
 There are   108 symmetry adapted basis functions of A   symmetry.
   108 basis functions,   190 primitive gaussians,   124 cartesian basis functions
    17 alpha electrons       17 beta electrons
       nuclear repulsion energy       102.7002534850 Hartrees.
 NAtoms=    4 NActive=    4 NUniq=    4 SFac= 1.00D+00 NAtFMM=   60 NAOKFM=F Big=F
 Integral buffers will be    131072 words long.
 Raffenetti 2 integral format.
 Two-electron integral symmetry is turned on.
 One-electron integrals computed using PRISM.
 NBasis=   108 RedAO= T EigKep=  4.34D-03  NBF=   108
 NBsUse=   108 1.00D-06 EigRej= -1.00D+00 NBFU=   108
 Initial guess from the checkpoint file:  "/wrk/irikura/Gau-29875.chk"
 B after Tr=    -0.000000    0.000000   -0.000000
         Rot=    0.999991    0.004018    0.000580    0.001170 Ang=   0.48 deg.
 ExpMin= 7.42D-02 ExpMax= 1.54D+05 ExpMxC= 1.49D+03 IAcc=3 IRadAn=         5 AccDes= 0.00D+00
 Harris functional with IExCor=  402 and IRadAn=       5 diagonalized for initial guess.
 HarFok:  IExCor=  402 AccDes= 0.00D+00 IRadAn=         5 IDoV= 1 UseB2=F ITyADJ=14
 ICtDFT=  3500011 ScaDFX=  1.000000  1.000000  1.000000  1.000000
 FoFCou: FMM=F IPFlag=           0 FMFlag=      100000 FMFlg1=           0
         NFxFlg=           0 DoJE=T BraDBF=F KetDBF=T FulRan=T
         wScrn=  0.000000 ICntrl=       500 IOpCl=  0 I1Cent=   200000004 NGrid=           0
         NMat0=    1 NMatS0=      1 NMatT0=    0 NMatD0=    1 NMtDS0=    0 NMtDT0=    0
 Petite list used in FoFCou.
 Keep R1 ints in memory in canonical form, NReq=28741811.
 Requested convergence on RMS density matrix=1.00D-08 within 128 cycles.
 Requested convergence on MAX density matrix=1.00D-06.
 Requested convergence on             energy=1.00D-06.
 No special actions if energy rises.
 Integral accuracy reduced to 1.0D-05 until final iterations.
 Initial convergence to 1.0D-05 achieved.  Increase integral accuracy.
 SCF Done:  E(RB3LYP) =  -611.197657966     A.U. after   11 cycles
            NFock= 11  Conv=0.83D-08     -V/T= 2.0014
 Calling FoFJK, ICntrl=      2127 FMM=F ISym2X=0 I1Cent= 0 IOpClX= 0 NMat=1 NMatS=1 NMatT=0.
 ***** Axes restored to original set *****
 -------------------------------------------------------------------
 Center     Atomic                   Forces (Hartrees/Bohr)
 Number     Number              X              Y              Z
 -------------------------------------------------------------------
      1        8          -0.001623176   -0.001670054   -0.000736887
      2        8           0.002621687    0.000547095    0.000563384
      3       17          -0.001862330    0.000567391    0.000146283
      4        1           0.000863820    0.000555568    0.000027220
 -------------------------------------------------------------------
 Cartesian Forces:  Max     0.002621687 RMS     0.001235716

 GradGradGradGradGradGradGradGradGradGradGradGradGradGradGradGradGradGrad
 Berny optimization.
 Using GEDIIS/GDIIS optimizer.
 FormGI is forming the generalized inverse of G from B-inverse, IUseBI=4.
 Internal  Forces:  Max     0.001930726 RMS     0.001272900
 Search for a local minimum.
 Step number   2 out of a maximum of   20
 All quantities printed in internal units (Hartrees-Bohrs-Radians)
 Mixed Optimization -- RFO/linear search
 Update second derivatives using D2CorX and points    1    2
 DE= -5.12D-05 DEPred=-5.51D-05 R= 9.30D-01
 TightC=F SS=  1.41D+00  RLast= 4.42D-02 DXNew= 5.0454D-01 1.3275D-01
 Trust test= 9.30D-01 RLast= 4.42D-02 DXMaxT set to 3.00D-01
 The second derivative matrix:
                          R1        R2        R3        A1        A2
           R1           0.35334
           R2           0.03736   0.51749
           R3           0.08390  -0.03851   0.26086
           A1           0.02764  -0.02389   0.02241   0.23089
           A2           0.00887  -0.01047   0.01632   0.03864   0.27072
           D1           0.00309  -0.00454   0.00858   0.01850   0.00986
                          D1
           D1           0.01760
 ITU=  1  0
 Use linear search instead of GDIIS.
     Eigenvalues ---    0.01566   0.20050   0.20609   0.28492   0.41403
     Eigenvalues ---    0.52968
 RFO step:  Lambda=-4.42507162D-05 EMin= 1.56615437D-02
 Quartic linear search produced a step of -0.06303.
 Iteration  1 RMS(Cart)=  0.00813816 RMS(Int)=  0.00004526
 Iteration  2 RMS(Cart)=  0.00003151 RMS(Int)=  0.00000000
 Iteration  3 RMS(Cart)=  0.00000000 RMS(Int)=  0.00000000
 Variable       Old X    -DE/DX   Delta X   Delta X   Delta X     New X
                                 (Linear)    (Quad)   (Total)
    R1        2.65602   0.00136  -0.00063   0.00748   0.00684   2.66287
    R2        1.83374  -0.00025   0.00026  -0.00233  -0.00207   1.83167
    R3        3.30225  -0.00193   0.00045  -0.00931  -0.00885   3.29340
    A1        1.79742  -0.00178  -0.00058  -0.00614  -0.00672   1.79069
    A2        1.92624  -0.00086  -0.00026  -0.00131  -0.00157   1.92467
    D1        1.56161  -0.00039  -0.00259  -0.00885  -0.01144   1.55017
         Item               Value     Threshold  Converged?
 Maximum Force            0.001931     0.000450     NO 
 RMS     Force            0.001273     0.000300     NO 
 Maximum Displacement     0.013972     0.001800     NO 
 RMS     Displacement     0.008138     0.001200     NO 
 Predicted change in Energy=-2.236080D-05
 GradGradGradGradGradGradGradGradGradGradGradGradGradGradGradGradGradGrad

                          Input orientation:                          
 ---------------------------------------------------------------------
 Center     Atomic      Atomic             Coordinates (Angstroms)
 Number     Number       Type             X           Y           Z
 ---------------------------------------------------------------------
      1          8           0       -1.557078   -0.357472   -0.063840
      2          8           0       -0.555693    0.630420    0.019470
      3         17           0        1.023408   -0.106461   -0.008143
      4          1           0       -1.707611   -0.584900    0.866276
 ---------------------------------------------------------------------
                    Distance matrix (angstroms):
                    1          2          3          4
     1  O    0.000000
     2  O    1.409128   0.000000
     3  Cl   2.593264   1.742790   0.000000
     4  H    0.969277   1.876432   2.907228   0.000000
 Stoichiometry    ClHO2
 Framework group  C1[X(ClHO2)]
 Deg. of freedom     6
 Full point group                 C1      NOp   1
 Largest Abelian subgroup         C1      NOp   1
 Largest concise Abelian subgroup C1      NOp   1
                         Standard orientation:                         
 ---------------------------------------------------------------------
 Center     Atomic      Atomic             Coordinates (Angstroms)
 Number     Number       Type             X           Y           Z
 ---------------------------------------------------------------------
      1          8           0       -1.526495   -0.313747   -0.122971
      2          8           0       -0.506650    0.646772    0.028555
      3         17           0        1.056881   -0.122478   -0.002144
      4          1           0       -1.701822   -0.582072    0.791775
 ---------------------------------------------------------------------
 Rotational constants (GHZ):          50.7073374           6.0082892           5.4679433
 Basis read from rwf:  (5D, 7F)
 There are   124 symmetry adapted cartesian basis functions of A   symmetry.
 There are   108 symmetry adapted basis functions of A   symmetry.
   108 basis functions,   190 primitive gaussians,   124 cartesian basis functions
    17 alpha electrons       17 beta electrons
       nuclear repulsion energy       102.7990061418 Hartrees.
 NAtoms=    4 NActive=    4 NUniq=    4 SFac= 1.00D+00 NAtFMM=   60 NAOKFM=F Big=F
 Integral buffers will be    131072 words long.
 Raffenetti 2 integral format.
 Two-electron integral symmetry is turned on.
 One-electron integrals computed using PRISM.
 NBasis=   108 RedAO= T EigKep=  4.35D-03  NBF=   108
 NBsUse=   108 1.00D-06 EigRej= -1.00D+00 NBFU=   108
 Initial guess from the checkpoint file:  "/wrk/irikura/Gau-29875.chk"
 B after Tr=    -0.000000    0.000000   -0.000000
         Rot=    1.000000   -0.000414   -0.000243    0.000378 Ang=  -0.07 deg.
 Keep R1 ints in memory in canonical form, NReq=28741811.
 Requested convergence on RMS density matrix=1.00D-08 within 128 cycles.
 Requested convergence on MAX density matrix=1.00D-06.
 Requested convergence on             energy=1.00D-06.
 No special actions if energy rises.
 SCF Done:  E(RB3LYP) =  -611.197688342     A.U. after    9 cycles
            NFock=  9  Conv=0.56D-08     -V/T= 2.0014
 Calling FoFJK, ICntrl=      2127 FMM=F ISym2X=0 I1Cent= 0 IOpClX= 0 NMat=1 NMatS=1 NMatT=0.
 ***** Axes restored to original set *****
 -------------------------------------------------------------------
 Center     Atomic                   Forces (Hartrees/Bohr)
 Number     Number              X              Y              Z
 -------------------------------------------------------------------
      1        8          -0.000397049   -0.000510150   -0.001011369
      2        8           0.001203359    0.000187204    0.000227871
      3       17          -0.000942604    0.000287439    0.000026980
      4        1           0.000136294    0.000035508    0.000756518
 -------------------------------------------------------------------
 Cartesian Forces:  Max     0.001203359 RMS     0.000615076

 GradGradGradGradGradGradGradGradGradGradGradGradGradGradGradGradGradGrad
 Berny optimization.
 Using GEDIIS/GDIIS optimizer.
 FormGI is forming the generalized inverse of G from B-inverse, IUseBI=4.
 Internal  Forces:  Max     0.000975891 RMS     0.000617622
 Search for a local minimum.
 Step number   3 out of a maximum of   20
 All quantities printed in internal units (Hartrees-Bohrs-Radians)
 Mixed Optimization -- En-DIIS/RFO-DIIS
 Update second derivatives using D2CorX and points    1    2    3
 DE= -3.04D-05 DEPred=-2.24D-05 R= 1.36D+00
 TightC=F SS=  1.41D+00  RLast= 1.76D-02 DXNew= 5.0454D-01 5.2657D-02
 Trust test= 1.36D+00 RLast= 1.76D-02 DXMaxT set to 3.00D-01
 The second derivative matrix:
                          R1        R2        R3        A1        A2
           R1           0.34104
           R2          -0.00744   0.57830
           R3           0.12153  -0.01920   0.20763
           A1           0.05154  -0.01573  -0.00921   0.21230
           A2           0.03052  -0.01805  -0.00446   0.02704   0.26598
           D1           0.00424  -0.00014   0.00497   0.01621   0.00776
                          D1
           D1           0.01750
 ITU=  1  1  0
 Use linear search instead of GDIIS.
     Eigenvalues ---    0.01577   0.12124   0.20578   0.27390   0.42340
     Eigenvalues ---    0.58267
 RFO step:  Lambda=-5.26203901D-06 EMin= 1.57697512D-02
 Quartic linear search produced a step of  0.57585.
 Iteration  1 RMS(Cart)=  0.00361411 RMS(Int)=  0.00000564
 Iteration  2 RMS(Cart)=  0.00000563 RMS(Int)=  0.00000000
 Iteration  3 RMS(Cart)=  0.00000000 RMS(Int)=  0.00000000
 Variable       Old X    -DE/DX   Delta X   Delta X   Delta X     New X
                                 (Linear)    (Quad)   (Total)
    R1        2.66287   0.00053   0.00394   0.00133   0.00527   2.66814
    R2        1.83167   0.00070  -0.00119   0.00201   0.00082   1.83249
    R3        3.29340  -0.00098  -0.00510  -0.00295  -0.00805   3.28535
    A1        1.79069  -0.00060  -0.00387  -0.00046  -0.00433   1.78636
    A2        1.92467  -0.00046  -0.00091  -0.00113  -0.00204   1.92263
    D1        1.55017  -0.00005  -0.00659   0.00899   0.00240   1.55258
         Item               Value     Threshold  Converged?
 Maximum Force            0.000976     0.000450     NO 
 RMS     Force            0.000618     0.000300     NO 
 Maximum Displacement     0.006180     0.001800     NO 
 RMS     Displacement     0.003615     0.001200     NO 
 Predicted change in Energy=-7.259634D-06
 GradGradGradGradGradGradGradGradGradGradGradGradGradGradGradGradGradGrad

                          Input orientation:                          
 ---------------------------------------------------------------------
 Center     Atomic      Atomic             Coordinates (Angstroms)
 Number     Number       Type             X           Y           Z
 ---------------------------------------------------------------------
      1          8           0       -1.556832   -0.359138   -0.065008
      2          8           0       -0.553969    0.631053    0.020465
      3         17           0        1.020138   -0.106421   -0.008070
      4          1           0       -1.706311   -0.583906    0.866376
 ---------------------------------------------------------------------
                    Distance matrix (angstroms):
                    1          2          3          4
     1  O    0.000000
     2  O    1.411919   0.000000
     3  Cl   2.589958   1.738532   0.000000
     4  H    0.969712   1.876055   2.902787   0.000000
 Stoichiometry    ClHO2
 Framework group  C1[X(ClHO2)]
 Deg. of freedom     6
 Full point group                 C1      NOp   1
 Largest Abelian subgroup         C1      NOp   1
 Largest concise Abelian subgroup C1      NOp   1
                         Standard orientation:                         
 ---------------------------------------------------------------------
 Center     Atomic      Atomic             Coordinates (Angstroms)
 Number     Number       Type             X           Y           Z
 ---------------------------------------------------------------------
      1          8           0       -1.525426   -0.314232   -0.122874
      2          8           0       -0.503238    0.647995    0.028011
      3         17           0        1.054643   -0.123106   -0.002069
      4          1           0       -1.699632   -0.577312    0.794068
 ---------------------------------------------------------------------
 Rotational constants (GHZ):          50.5405971           6.0281287           5.4827655
 Basis read from rwf:  (5D, 7F)
 There are   124 symmetry adapted cartesian basis functions of A   symmetry.
 There are   108 symmetry adapted basis functions of A   symmetry.
   108 basis functions,   190 primitive gaussians,   124 cartesian basis functions
    17 alpha electrons       17 beta electrons
       nuclear repulsion energy       102.8912951223 Hartrees.
 NAtoms=    4 NActive=    4 NUniq=    4 SFac= 1.00D+00 NAtFMM=   60 NAOKFM=F Big=F
 Integral buffers will be    131072 words long.
 Raffenetti 2 integral format.
 Two-electron integral symmetry is turned on.
 One-electron integrals computed using PRISM.
 NBasis=   108 RedAO= T EigKep=  4.37D-03  NBF=   108
 NBsUse=   108 1.00D-06 EigRej= -1.00D+00 NBFU=   108
 Initial guess from the checkpoint file:  "/wrk/irikura/Gau-29875.chk"
 B after Tr=     0.000000   -0.000000    0.000000
         Rot=    1.000000    0.000829   -0.000036    0.000389 Ang=   0.10 deg.
 Keep R1 ints in memory in canonical form, NReq=28741811.
 Requested convergence on RMS density matrix=1.00D-08 within 128 cycles.
 Requested convergence on MAX density matrix=1.00D-06.
 Requested convergence on             energy=1.00D-06.
 No special actions if energy rises.
 SCF Done:  E(RB3LYP) =  -611.197695669     A.U. after    9 cycles
            NFock=  9  Conv=0.21D-08     -V/T= 2.0014
 Calling FoFJK, ICntrl=      2127 FMM=F ISym2X=0 I1Cent= 0 IOpClX= 0 NMat=1 NMatS=1 NMatT=0.
 ***** Axes restored to original set *****
 -------------------------------------------------------------------
 Center     Atomic                   Forces (Hartrees/Bohr)
 Number     Number              X              Y              Z
 -------------------------------------------------------------------
      1        8           0.000048673    0.000104484   -0.000185163
      2        8           0.000015084   -0.000064285   -0.000031127
      3       17          -0.000022607    0.000029566    0.000012592
      4        1          -0.000041149   -0.000069765    0.000203698
 -------------------------------------------------------------------
 Cartesian Forces:  Max     0.000203698 RMS     0.000092420

 GradGradGradGradGradGradGradGradGradGradGradGradGradGradGradGradGradGrad
 Berny optimization.
 Using GEDIIS/GDIIS optimizer.
 FormGI is forming the generalized inverse of G from B-inverse, IUseBI=4.
 Internal  Forces:  Max     0.000218462 RMS     0.000095112
 Search for a local minimum.
 Step number   4 out of a maximum of   20
 All quantities printed in internal units (Hartrees-Bohrs-Radians)
 Mixed Optimization -- En-DIIS/RFO-DIIS
 Swapping is turned off.
 Update second derivatives using D2CorX and points    1    2    3    4
 DE= -7.33D-06 DEPred=-7.26D-06 R= 1.01D+00
 TightC=F SS=  1.41D+00  RLast= 1.10D-02 DXNew= 5.0454D-01 3.3125D-02
 Trust test= 1.01D+00 RLast= 1.10D-02 DXMaxT set to 3.00D-01
 The second derivative matrix:
                          R1        R2        R3        A1        A2
           R1           0.33624
           R2          -0.00667   0.56099
           R3           0.12165  -0.00504   0.20263
           A1           0.04446   0.00141  -0.00894   0.21339
           A2           0.02229  -0.00578  -0.00226   0.02678   0.26536
           D1           0.00543   0.00271   0.00277   0.01574   0.00694
                          D1
           D1           0.01768
 ITU=  1  1  1  0
     Eigenvalues ---    0.01624   0.12037   0.20637   0.27458   0.41713
     Eigenvalues ---    0.56161
 En-DIIS/RFO-DIIS/Sim-DIIS IScMMF=       -3 using points:     4    3
 RFO step:  Lambda=-1.41030447D-07.
 DidBck=F Rises=F RFO-DIIS coefs:    0.96153    0.03847
 Iteration  1 RMS(Cart)=  0.00060426 RMS(Int)=  0.00000036
 Iteration  2 RMS(Cart)=  0.00000025 RMS(Int)=  0.00000000
 Variable       Old X    -DE/DX   Delta X   Delta X   Delta X     New X
                                 (Linear)    (Quad)   (Total)
    R1        2.66814  -0.00003  -0.00020   0.00011  -0.00009   2.66805
    R2        1.83249   0.00022  -0.00003   0.00043   0.00040   1.83289
    R3        3.28535  -0.00003   0.00031  -0.00038  -0.00007   3.28528
    A1        1.78636   0.00004   0.00017   0.00010   0.00027   1.78663
    A2        1.92263   0.00005   0.00008   0.00014   0.00022   1.92286
    D1        1.55258  -0.00002  -0.00009  -0.00135  -0.00144   1.55114
         Item               Value     Threshold  Converged?
 Maximum Force            0.000218     0.000450     YES
 RMS     Force            0.000095     0.000300     YES
 Maximum Displacement     0.000673     0.001800     YES
 RMS     Displacement     0.000604     0.001200     YES
 Predicted change in Energy=-7.051535D-08
 Optimization completed.
    -- Stationary point found.
                           ----------------------------
                           !   Optimized Parameters   !
                           ! (Angstroms and Degrees)  !
 --------------------------                            --------------------------
 ! Name  Definition              Value          Derivative Info.                !
 --------------------------------------------------------------------------------
 ! R1    R(1,2)                  1.4119         -DE/DX =    0.0                 !
 ! R2    R(1,4)                  0.9697         -DE/DX =    0.0002              !
 ! R3    R(2,3)                  1.7385         -DE/DX =    0.0                 !
 ! A1    A(2,1,4)              102.351          -DE/DX =    0.0                 !
 ! A2    A(1,2,3)              110.1588         -DE/DX =    0.0001              !
 ! D1    D(4,1,2,3)             88.9562         -DE/DX =    0.0                 !
 --------------------------------------------------------------------------------
 GradGradGradGradGradGradGradGradGradGradGradGradGradGradGradGradGradGrad

                          Input orientation:                          
 ---------------------------------------------------------------------
 Center     Atomic      Atomic             Coordinates (Angstroms)
 Number     Number       Type             X           Y           Z
 ---------------------------------------------------------------------
      1          8           0       -1.556832   -0.359138   -0.065008
      2          8           0       -0.553969    0.631053    0.020465
      3         17           0        1.020138   -0.106421   -0.008070
      4          1           0       -1.706311   -0.583906    0.866376
 ---------------------------------------------------------------------
                    Distance matrix (angstroms):
                    1          2          3          4
     1  O    0.000000
     2  O    1.411919   0.000000
     3  Cl   2.589958   1.738532   0.000000
     4  H    0.969712   1.876055   2.902787   0.000000
 Stoichiometry    ClHO2
 Framework group  C1[X(ClHO2)]
 Deg. of freedom     6
 Full point group                 C1      NOp   1
 Largest Abelian subgroup         C1      NOp   1
 Largest concise Abelian subgroup C1      NOp   1
                         Standard orientation:                         
 ---------------------------------------------------------------------
 Center     Atomic      Atomic             Coordinates (Angstroms)
 Number     Number       Type             X           Y           Z
 ---------------------------------------------------------------------
      1          8           0       -1.525426   -0.314232   -0.122874
      2          8           0       -0.503238    0.647995    0.028011
      3         17           0        1.054643   -0.123106   -0.002069
      4          1           0       -1.699632   -0.577312    0.794068
 ---------------------------------------------------------------------
 Rotational constants (GHZ):          50.5405971           6.0281287           5.4827655

 **********************************************************************

            Population analysis using the SCF Density.

 **********************************************************************

 Orbital symmetries:
       Occupied  (A) (A) (A) (A) (A) (A) (A) (A) (A) (A) (A) (A)
                 (A) (A) (A) (A) (A)
       Virtual   (A) (A) (A) (A) (A) (A) (A) (A) (A) (A) (A) (A)
                 (A) (A) (A) (A) (A) (A) (A) (A) (A) (A) (A) (A)
                 (A) (A) (A) (A) (A) (A) (A) (A) (A) (A) (A) (A)
                 (A) (A) (A) (A) (A) (A) (A) (A) (A) (A) (A) (A)
                 (A) (A) (A) (A) (A) (A) (A) (A) (A) (A) (A) (A)
                 (A) (A) (A) (A) (A) (A) (A) (A) (A) (A) (A) (A)
                 (A) (A) (A) (A) (A) (A) (A) (A) (A) (A) (A) (A)
                 (A) (A) (A) (A) (A) (A) (A)
 The electronic state is 1-A.
 Alpha  occ. eigenvalues -- -101.56096 -19.26466 -19.22617  -9.50244  -7.26775
 Alpha  occ. eigenvalues --   -7.25392  -7.25325  -1.17900  -0.95729  -0.79550
 Alpha  occ. eigenvalues --   -0.57823  -0.51029  -0.48930  -0.39410  -0.34807
 Alpha  occ. eigenvalues --   -0.33939  -0.30043
 Alpha virt. eigenvalues --   -0.10853  -0.01454   0.02724   0.24899   0.26856
 Alpha virt. eigenvalues --    0.27322   0.29623   0.31681   0.32697   0.33368
 Alpha virt. eigenvalues --    0.35380   0.36797   0.40330   0.49902   0.52550
 Alpha virt. eigenvalues --    0.54713   0.56161   0.62242   0.65218   0.72014
 Alpha virt. eigenvalues --    0.79215   0.83896   0.97171   1.12183   1.27045
 Alpha virt. eigenvalues --    1.38555   1.42974   1.51991   1.66046   1.70743
 Alpha virt. eigenvalues --    1.76961   1.80655   1.90185   1.95221   1.97596
 Alpha virt. eigenvalues --    2.09366   2.09561   2.09796   2.09929   2.14308
 Alpha virt. eigenvalues --    2.16536   2.17145   2.21175   2.22956   2.28532
 Alpha virt. eigenvalues --    2.34511   2.46442   2.53488   2.67778   2.86617
 Alpha virt. eigenvalues --    3.21885   3.37880   3.43833   3.46793   3.47643
 Alpha virt. eigenvalues --    3.50632   3.51803   3.56675   3.63597   3.66383
 Alpha virt. eigenvalues --    3.77826   3.88305   3.96923   3.98588   4.03048
 Alpha virt. eigenvalues --    4.12048   4.26542   4.27992   4.39311   4.43142
 Alpha virt. eigenvalues --    4.56535   4.74812   4.86371   4.97978   5.19344
 Alpha virt. eigenvalues --    5.26542   5.88287   5.99702   6.07160   6.09781
 Alpha virt. eigenvalues --    6.14886   6.21690   6.22954   6.46416   6.58540
 Alpha virt. eigenvalues --    6.62872   6.81734   6.91167   7.25460   9.54834
 Alpha virt. eigenvalues --   32.05993
          Condensed to atoms (all electrons):
               1          2          3          4
     1  O    7.872526   0.021556  -0.060825   0.314012
     2  O    0.021556   8.093360   0.039470  -0.026097
     3  Cl  -0.060825   0.039470  16.961914   0.001789
     4  H    0.314012  -0.026097   0.001789   0.492388
 Mulliken charges:
               1
     1  O   -0.147269
     2  O   -0.128290
     3  Cl   0.057652
     4  H    0.217907
 Sum of Mulliken charges =  -0.00000
 Mulliken charges with hydrogens summed into heavy atoms:
               1
     1  O    0.070637
     2  O   -0.128290
     3  Cl   0.057652
 Electronic spatial extent (au):  <R**2>=            222.1588
 Charge=             -0.0000 electrons
 Dipole moment (field-independent basis, Debye):
    X=             -0.4080    Y=             -0.8850    Z=              1.5376  Tot=              1.8204
 Quadrupole moment (field-independent basis, Debye-Ang):
   XX=            -21.5286   YY=            -23.9653   ZZ=            -23.0687
   XY=              0.8075   XZ=             -2.9538   YZ=             -1.0751
 Traceless Quadrupole moment (field-independent basis, Debye-Ang):
   XX=              1.3256   YY=             -1.1111   ZZ=             -0.2145
   XY=              0.8075   XZ=             -2.9538   YZ=             -1.0751
 Octapole moment (field-independent basis, Debye-Ang**2):
  XXX=             -3.2414  YYY=              0.1922  ZZZ=              1.5380  XYY=             -1.7107
  XXY=             -3.7512  XXZ=              5.2203  XZZ=             -4.0437  YZZ=             -0.6251
  YYZ=              0.8178  XYZ=              1.8747
 Hexadecapole moment (field-independent basis, Debye-Ang**3):
 XXXX=           -185.0815 YYYY=            -42.3103 ZZZZ=            -25.0104 XXXY=              1.8685
 XXXZ=            -10.1386 YYYX=              1.2445 YYYZ=             -0.6984 ZZZX=             -3.0017
 ZZZY=             -1.1278 XXYY=            -37.5210 XXZZ=            -34.7560 YYZZ=            -11.2987
 XXYZ=             -3.0721 YYXZ=             -1.4390 ZZXY=              1.5780
 N-N= 1.028912951223D+02 E-N=-1.657809083170D+03  KE= 6.103678709304D+02
 1\1\GINC-GAMBA\FOpt\RB3LYP\Gen\Cl1H1O2\IRIKURA\16-Jun-2022\0\\# b3lyp/
 gen opt freq\\chlorine hydroperoxide, B3LYP/pcseg-2\\0,1\O,-1.55683168
 43,-0.359137712,-0.0650082023\O,-0.5539693332,0.6310526563,0.020465088
 \Cl,1.0201378921,-0.1064209797,-0.0080698996\H,-1.7063108746,-0.583905
 9646,0.8663760139\\Version=ES64L-G16RevB.01\State=1-A\HF=-611.1976957\
 RMSD=2.095e-09\RMSF=9.242e-05\Dipole=-0.1402161,-0.3236743,0.6233328\Q
 uadrupole=0.8682101,-0.8747449,0.0065349,0.5227798,-2.2243286,-0.82531
 35\PG=C01 [X(Cl1H1O2)]\\@


 THE MOST BEAUTIFUL EXPERIENCE WE CAN HAVE IS THE MYSTERIOUS.
 IT IS THE FUNDAMENTAL EMOTION WHICH STANDS AT AT THE CRADLE 
 OF TRUE ART AND TRUE SCIENCE.

                                    -- ALBERT EINSTEIN
 Job cpu time:       0 days  0 hours  3 minutes  0.8 seconds.
 Elapsed time:       0 days  0 hours  0 minutes 16.1 seconds.
 File lengths (MBytes):  RWF=     10 Int=      0 D2E=      0 Chk=      2 Scr=      1
 Normal termination of Gaussian 16 at Thu Jun 16 12:15:20 2022.
 Link1:  Proceeding to internal job step number  2.
 ------------------------------------------------------------------
 #N Geom=AllCheck Guess=TCheck SCRF=Check GenChk RB3LYP/ChkBas Freq
 ------------------------------------------------------------------
 1/10=4,29=7,30=1,38=1,40=1/1,3;
 2/12=2,40=1/2;
 3/5=7,6=2,11=2,14=-4,25=1,30=1,67=1,70=2,71=2,74=-5,82=7,116=1,140=1/1,2,3;
 4/5=101/1;
 5/5=2,38=6,98=1/2;
 8/6=4,10=90,11=11/1;
 11/6=1,8=1,9=11,15=111,16=1/1,2,10;
 10/6=1/2;
 6/7=2,8=2,9=2,10=2,28=1/1;
 7/8=1,10=1,25=1/1,2,3,16;
 1/10=4,30=1/3;
 99//99;
 Structure from the checkpoint file:  "/wrk/irikura/Gau-29875.chk"
 -------------------------------------
 chlorine hydroperoxide, B3LYP/pcseg-2
 -------------------------------------
 Charge =  0 Multiplicity = 1
 Redundant internal coordinates found in file.  (old form).
 O,0,-1.5568316843,-0.359137712,-0.0650082023
 O,0,-0.5539693332,0.6310526563,0.020465088
 Cl,0,1.0201378921,-0.1064209797,-0.0080698996
 H,0,-1.7063108746,-0.5839059646,0.8663760139
 Recover connectivity data from disk.

 GradGradGradGradGradGradGradGradGradGradGradGradGradGradGradGradGradGrad
 Berny optimization.
 Initialization pass.
                           ----------------------------
                           !    Initial Parameters    !
                           ! (Angstroms and Degrees)  !
 --------------------------                            --------------------------
 ! Name  Definition              Value          Derivative Info.                !
 --------------------------------------------------------------------------------
 ! R1    R(1,2)                  1.4119         calculate D2E/DX2 analytically  !
 ! R2    R(1,4)                  0.9697         calculate D2E/DX2 analytically  !
 ! R3    R(2,3)                  1.7385         calculate D2E/DX2 analytically  !
 ! A1    A(2,1,4)              102.351          calculate D2E/DX2 analytically  !
 ! A2    A(1,2,3)              110.1588         calculate D2E/DX2 analytically  !
 ! D1    D(4,1,2,3)             88.9562         calculate D2E/DX2 analytically  !
 --------------------------------------------------------------------------------
 Trust Radius=3.00D-01 FncErr=1.00D-07 GrdErr=1.00D-07 EigMax=2.50D+02 EigMin=1.00D-04
 Number of steps in this run=      2 maximum allowed number of steps=      2.
 GradGradGradGradGradGradGradGradGradGradGradGradGradGradGradGradGradGrad

                          Input orientation:                          
 ---------------------------------------------------------------------
 Center     Atomic      Atomic             Coordinates (Angstroms)
 Number     Number       Type             X           Y           Z
 ---------------------------------------------------------------------
      1          8           0       -1.556832   -0.359138   -0.065008
      2          8           0       -0.553969    0.631053    0.020465
      3         17           0        1.020138   -0.106421   -0.008070
      4          1           0       -1.706311   -0.583906    0.866376
 ---------------------------------------------------------------------
                    Distance matrix (angstroms):
                    1          2          3          4
     1  O    0.000000
     2  O    1.411919   0.000000
     3  Cl   2.589958   1.738532   0.000000
     4  H    0.969712   1.876055   2.902787   0.000000
 Stoichiometry    ClHO2
 Framework group  C1[X(ClHO2)]
 Deg. of freedom     6
 Full point group                 C1      NOp   1
 Largest Abelian subgroup         C1      NOp   1
 Largest concise Abelian subgroup C1      NOp   1
                         Standard orientation:                         
 ---------------------------------------------------------------------
 Center     Atomic      Atomic             Coordinates (Angstroms)
 Number     Number       Type             X           Y           Z
 ---------------------------------------------------------------------
      1          8           0       -1.525426   -0.314232   -0.122874
      2          8           0       -0.503238    0.647995    0.028011
      3         17           0        1.054643   -0.123106   -0.002069
      4          1           0       -1.699632   -0.577312    0.794068
 ---------------------------------------------------------------------
 Rotational constants (GHZ):          50.5405971           6.0281287           5.4827655
 Basis read from chk: "/wrk/irikura/Gau-29875.chk" (5D, 7F)
 There are   124 symmetry adapted cartesian basis functions of A   symmetry.
 There are   108 symmetry adapted basis functions of A   symmetry.
   108 basis functions,   190 primitive gaussians,   124 cartesian basis functions
    17 alpha electrons       17 beta electrons
       nuclear repulsion energy       102.8912951223 Hartrees.
 NAtoms=    4 NActive=    4 NUniq=    4 SFac= 1.00D+00 NAtFMM=   60 NAOKFM=F Big=F
 Integral buffers will be    131072 words long.
 Raffenetti 2 integral format.
 Two-electron integral symmetry is turned on.
 One-electron integrals computed using PRISM.
 NBasis=   108 RedAO= T EigKep=  4.37D-03  NBF=   108
 NBsUse=   108 1.00D-06 EigRej= -1.00D+00 NBFU=   108
 Initial guess from the checkpoint file:  "/wrk/irikura/Gau-29875.chk"
 B after Tr=    -0.000000   -0.000000    0.000000
         Rot=    1.000000   -0.000000   -0.000000   -0.000000 Ang=   0.00 deg.
 Keep R1 ints in memory in canonical form, NReq=28741811.
 Requested convergence on RMS density matrix=1.00D-08 within 128 cycles.
 Requested convergence on MAX density matrix=1.00D-06.
 Requested convergence on             energy=1.00D-06.
 No special actions if energy rises.
 SCF Done:  E(RB3LYP) =  -611.197695669     A.U. after    1 cycles
            NFock=  1  Conv=0.77D-09     -V/T= 2.0014
 DoSCS=F DFT=T ScalE2(SS,OS)=  1.000000  1.000000
 Range of M.O.s used for correlation:     1   108
 NBasis=   108 NAE=    17 NBE=    17 NFC=     0 NFV=     0
 NROrb=    108 NOA=    17 NOB=    17 NVA=    91 NVB=    91
 Symmetrizing basis deriv contribution to polar:
 IMax=3 JMax=2 DiffMx= 0.00D+00
 G2DrvN: will do     5 centers at a time, making    1 passes.
 Calling FoFCou, ICntrl=  3107 FMM=F I1Cent=   0 AccDes= 0.00D+00.
 End of G2Drv F.D. properties file   721 does not exist.
 End of G2Drv F.D. properties file   722 does not exist.
 End of G2Drv F.D. properties file   788 does not exist.
          IDoAtm=1111
          Differentiating once with respect to electric field.
                with respect to dipole field.
          Differentiating once with respect to nuclear coordinates.
 Keep R1 ints in memory in canonical form, NReq=28703667.
          There are    15 degrees of freedom in the 1st order CPHF.  IDoFFX=6 NUNeed=     3.
     12 vectors produced by pass  0 Test12= 1.03D-14 6.67D-09 XBig12= 4.29D+01 3.88D+00.
 AX will form    12 AO Fock derivatives at one time.
     12 vectors produced by pass  1 Test12= 1.03D-14 6.67D-09 XBig12= 1.20D+01 1.18D+00.
     12 vectors produced by pass  2 Test12= 1.03D-14 6.67D-09 XBig12= 6.85D-01 1.68D-01.
     12 vectors produced by pass  3 Test12= 1.03D-14 6.67D-09 XBig12= 1.99D-02 3.48D-02.
     12 vectors produced by pass  4 Test12= 1.03D-14 6.67D-09 XBig12= 8.80D-05 1.95D-03.
     12 vectors produced by pass  5 Test12= 1.03D-14 6.67D-09 XBig12= 1.72D-07 8.13D-05.
      8 vectors produced by pass  6 Test12= 1.03D-14 6.67D-09 XBig12= 4.00D-10 3.81D-06.
      3 vectors produced by pass  7 Test12= 1.03D-14 6.67D-09 XBig12= 1.08D-12 1.63D-07.
      1 vectors produced by pass  8 Test12= 1.03D-14 6.67D-09 XBig12= 1.44D-15 8.21D-09.
 InvSVY:  IOpt=1 It=  1 EMax= 4.44D-16
 Solved reduced A of dimension    84 with    12 vectors.
 Isotropic polarizability for W=    0.000000       24.07 Bohr**3.
 End of Minotr F.D. properties file   721 does not exist.
 End of Minotr F.D. properties file   722 does not exist.
 End of Minotr F.D. properties file   788 does not exist.

 **********************************************************************

            Population analysis using the SCF Density.

 **********************************************************************

 Orbital symmetries:
       Occupied  (A) (A) (A) (A) (A) (A) (A) (A) (A) (A) (A) (A)
                 (A) (A) (A) (A) (A)
       Virtual   (A) (A) (A) (A) (A) (A) (A) (A) (A) (A) (A) (A)
                 (A) (A) (A) (A) (A) (A) (A) (A) (A) (A) (A) (A)
                 (A) (A) (A) (A) (A) (A) (A) (A) (A) (A) (A) (A)
                 (A) (A) (A) (A) (A) (A) (A) (A) (A) (A) (A) (A)
                 (A) (A) (A) (A) (A) (A) (A) (A) (A) (A) (A) (A)
                 (A) (A) (A) (A) (A) (A) (A) (A) (A) (A) (A) (A)
                 (A) (A) (A) (A) (A) (A) (A) (A) (A) (A) (A) (A)
                 (A) (A) (A) (A) (A) (A) (A)
 The electronic state is 1-A.
 Alpha  occ. eigenvalues -- -101.56096 -19.26466 -19.22617  -9.50244  -7.26775
 Alpha  occ. eigenvalues --   -7.25392  -7.25325  -1.17900  -0.95729  -0.79550
 Alpha  occ. eigenvalues --   -0.57823  -0.51029  -0.48930  -0.39410  -0.34807
 Alpha  occ. eigenvalues --   -0.33939  -0.30043
 Alpha virt. eigenvalues --   -0.10853  -0.01454   0.02724   0.24899   0.26856
 Alpha virt. eigenvalues --    0.27322   0.29623   0.31681   0.32697   0.33368
 Alpha virt. eigenvalues --    0.35380   0.36797   0.40330   0.49902   0.52550
 Alpha virt. eigenvalues --    0.54713   0.56161   0.62242   0.65218   0.72014
 Alpha virt. eigenvalues --    0.79215   0.83896   0.97171   1.12183   1.27045
 Alpha virt. eigenvalues --    1.38555   1.42974   1.51991   1.66046   1.70743
 Alpha virt. eigenvalues --    1.76961   1.80655   1.90185   1.95221   1.97596
 Alpha virt. eigenvalues --    2.09366   2.09561   2.09796   2.09929   2.14308
 Alpha virt. eigenvalues --    2.16536   2.17145   2.21175   2.22956   2.28532
 Alpha virt. eigenvalues --    2.34511   2.46442   2.53488   2.67778   2.86617
 Alpha virt. eigenvalues --    3.21885   3.37880   3.43833   3.46793   3.47643
 Alpha virt. eigenvalues --    3.50632   3.51803   3.56675   3.63597   3.66383
 Alpha virt. eigenvalues --    3.77826   3.88305   3.96923   3.98588   4.03048
 Alpha virt. eigenvalues --    4.12048   4.26542   4.27992   4.39311   4.43142
 Alpha virt. eigenvalues --    4.56535   4.74812   4.86371   4.97978   5.19344
 Alpha virt. eigenvalues --    5.26542   5.88287   5.99702   6.07160   6.09781
 Alpha virt. eigenvalues --    6.14886   6.21690   6.22954   6.46416   6.58540
 Alpha virt. eigenvalues --    6.62872   6.81734   6.91167   7.25460   9.54834
 Alpha virt. eigenvalues --   32.05993
          Condensed to atoms (all electrons):
               1          2          3          4
     1  O    7.872526   0.021556  -0.060825   0.314012
     2  O    0.021556   8.093360   0.039470  -0.026097
     3  Cl  -0.060825   0.039470  16.961914   0.001789
     4  H    0.314012  -0.026097   0.001789   0.492388
 Mulliken charges:
               1
     1  O   -0.147269
     2  O   -0.128290
     3  Cl   0.057652
     4  H    0.217907
 Sum of Mulliken charges =   0.00000
 Mulliken charges with hydrogens summed into heavy atoms:
               1
     1  O    0.070637
     2  O   -0.128290
     3  Cl   0.057652
 APT charges:
               1
     1  O   -0.311512
     2  O    0.197034
     3  Cl  -0.134104
     4  H    0.248581
 Sum of APT charges =  -0.00000
 APT charges with hydrogens summed into heavy atoms:
               1
     1  O   -0.062931
     2  O    0.197034
     3  Cl  -0.134104
 Electronic spatial extent (au):  <R**2>=            222.1588
 Charge=             -0.0000 electrons
 Dipole moment (field-independent basis, Debye):
    X=             -0.4080    Y=             -0.8850    Z=              1.5376  Tot=              1.8204
 Quadrupole moment (field-independent basis, Debye-Ang):
   XX=            -21.5286   YY=            -23.9653   ZZ=            -23.0687
   XY=              0.8075   XZ=             -2.9538   YZ=             -1.0751
 Traceless Quadrupole moment (field-independent basis, Debye-Ang):
   XX=              1.3256   YY=             -1.1111   ZZ=             -0.2145
   XY=              0.8075   XZ=             -2.9538   YZ=             -1.0751
 Octapole moment (field-independent basis, Debye-Ang**2):
  XXX=             -3.2414  YYY=              0.1922  ZZZ=              1.5380  XYY=             -1.7107
  XXY=             -3.7512  XXZ=              5.2203  XZZ=             -4.0437  YZZ=             -0.6251
  YYZ=              0.8178  XYZ=              1.8747
 Hexadecapole moment (field-independent basis, Debye-Ang**3):
 XXXX=           -185.0815 YYYY=            -42.3103 ZZZZ=            -25.0104 XXXY=              1.8685
 XXXZ=            -10.1386 YYYX=              1.2445 YYYZ=             -0.6984 ZZZX=             -3.0017
 ZZZY=             -1.1278 XXYY=            -37.5210 XXZZ=            -34.7560 YYZZ=            -11.2987
 XXYZ=             -3.0721 YYXZ=             -1.4390 ZZXY=              1.5780
 N-N= 1.028912951223D+02 E-N=-1.657809085237D+03  KE= 6.103678717656D+02
  Exact polarizability:  38.623  -0.694  18.516  -0.927  -0.501  15.062
 Approx polarizability:  61.744  -3.692  29.587  -0.478  -0.378  21.200
 Calling FoFJK, ICntrl=    100127 FMM=F ISym2X=0 I1Cent= 0 IOpClX= 0 NMat=1 NMatS=1 NMatT=0.
 Full mass-weighted force constant matrix:
 Low frequencies ---  -10.6762   -0.0021    0.0006    0.0038    8.0460   11.2131
 Low frequencies ---  369.7431  411.6476  639.1839
 Diagonal vibrational polarizability:
       12.3119725       9.1064168       0.2354448
 Harmonic frequencies (cm**-1), IR intensities (KM/Mole), Raman scattering
 activities (A**4/AMU), depolarization ratios for plane and unpolarized
 incident light, reduced masses (AMU), force constants (mDyne/A),
 and normal coordinates:
                      1                      2                      3
                      A                      A                      A
 Frequencies --    369.7426               411.6435               639.1839
 Red. masses --      5.3088                 1.2947                16.2999
 Frc consts  --      0.4276                 0.1293                 3.9236
 IR Inten    --     16.6340                85.1765                37.8991
  Atom  AN      X      Y      Z        X      Y      Z        X      Y      Z
     1   8     0.34  -0.08   0.01     0.08  -0.07  -0.02    -0.26   0.06  -0.00
     2   8     0.11   0.20  -0.01     0.04   0.01   0.06     0.73  -0.47  -0.04
     3  17    -0.22  -0.04   0.00    -0.03   0.01  -0.02    -0.22   0.19   0.02
     4   1     0.75  -0.47  -0.03    -0.66   0.73   0.06     0.21  -0.21   0.01
                      4                      5                      6
                      A                      A                      A
 Frequencies --    893.5076              1410.2144              3704.8985
 Red. masses --     15.4615                 1.1038                 1.0686
 Frc consts  --      7.2727                 1.2934                 8.6420
 IR Inten    --     50.4277                42.2077                43.2570
  Atom  AN      X      Y      Z        X      Y      Z        X      Y      Z
     1   8    -0.49  -0.48  -0.09    -0.02  -0.01  -0.05     0.01   0.02  -0.06
     2   8     0.32   0.59   0.08    -0.03  -0.03   0.04     0.00  -0.00   0.00
     3  17     0.07  -0.05  -0.00     0.00   0.00   0.00    -0.00   0.00  -0.00
     4   1     0.13  -0.09   0.14     0.74   0.62   0.25    -0.17  -0.26   0.95

 -------------------
 - Thermochemistry -
 -------------------
 Temperature   298.150 Kelvin.  Pressure   1.00000 Atm.
 Atom     1 has atomic number  8 and mass  15.99491
 Atom     2 has atomic number  8 and mass  15.99491
 Atom     3 has atomic number 17 and mass  34.96885
 Atom     4 has atomic number  1 and mass   1.00783
 Molecular mass:    67.96651 amu.
 Principal axes and moments of inertia in atomic units:
                           1         2         3
     Eigenvalues --    35.70874 299.38664 329.16622
           X            0.99975   0.01406  -0.01740
           Y           -0.01503   0.99823  -0.05748
           Z            0.01656   0.05772   0.99820
 This molecule is an asymmetric top.
 Rotational symmetry number  1.
 Rotational temperatures (Kelvin)      2.42557     0.28930     0.26313
 Rotational constants (GHZ):          50.54060     6.02813     5.48277
 Zero-point vibrational energy      44436.4 (Joules/Mol)
                                   10.62056 (Kcal/Mol)
 Warning -- explicit consideration of   2 degrees of freedom as
           vibrations may cause significant error
 Vibrational temperatures:    531.98   592.26   919.64  1285.56  2028.98
          (Kelvin)           5330.52
 
 Zero-point correction=                           0.016925 (Hartree/Particle)
 Thermal correction to Energy=                    0.020598
 Thermal correction to Enthalpy=                  0.021542
 Thermal correction to Gibbs Free Energy=        -0.008817
 Sum of electronic and zero-point Energies=           -611.180771
 Sum of electronic and thermal Energies=              -611.177098
 Sum of electronic and thermal Enthalpies=            -611.176154
 Sum of electronic and thermal Free Energies=         -611.206513
 
                     E (Thermal)             CV                S
                      KCal/Mol        Cal/Mol-Kelvin    Cal/Mol-Kelvin
 Total                   12.925             10.502             63.896
 Electronic               0.000              0.000              0.000
 Translational            0.889              2.981             38.567
 Rotational               0.889              2.981             22.780
 Vibrational             11.148              4.540              2.549
 Vibration     1          0.742              1.534              1.081
 Vibration     2          0.776              1.445              0.921
                       Q            Log10(Q)             Ln(Q)
 Total Bot       0.113665D+05          4.055627          9.338425
 Total V=0       0.692711D+12         11.840552         27.263879
 Vib (Bot)       0.243038D-07         -7.614326        -17.532635
 Vib (Bot)    1  0.492480D+00         -0.307612         -0.708302
 Vib (Bot)    2  0.429265D+00         -0.367274         -0.845681
 Vib (V=0)       0.148115D+01          0.170599          0.392819
 Vib (V=0)    1  0.120181D+01          0.079836          0.183828
 Vib (V=0)    2  0.115899D+01          0.064080          0.147549
 Electronic      0.100000D+01          0.000000          0.000000
 Translational   0.220240D+08          7.342896         16.907644
 Rotational      0.212352D+05          4.327057          9.963416
 ***** Axes restored to original set *****
 -------------------------------------------------------------------
 Center     Atomic                   Forces (Hartrees/Bohr)
 Number     Number              X              Y              Z
 -------------------------------------------------------------------
      1        8           0.000048672    0.000104479   -0.000185168
      2        8           0.000015076   -0.000064268   -0.000031127
      3       17          -0.000022597    0.000029558    0.000012592
      4        1          -0.000041151   -0.000069770    0.000203703
 -------------------------------------------------------------------
 Cartesian Forces:  Max     0.000203703 RMS     0.000092420
 FormGI is forming the generalized inverse of G from B-inverse, IUseBI=4.

 GradGradGradGradGradGradGradGradGradGradGradGradGradGradGradGradGradGrad
 Berny optimization.
 Internal  Forces:  Max     0.000218469 RMS     0.000095113
 Search for a local minimum.
 Step number   1 out of a maximum of    2
 All quantities printed in internal units (Hartrees-Bohrs-Radians)
 Second derivative matrix not updated -- analytic derivatives used.
 The second derivative matrix:
                          R1        R2        R3        A1        A2
           R1           0.27682
           R2           0.00390   0.49192
           R3           0.06474  -0.00157   0.15801
           A1           0.06872  -0.00729   0.00103   0.23080
           A2           0.04237  -0.00152   0.01458   0.00197   0.30713
           D1          -0.00093   0.00197   0.00254   0.00929   0.00710
                          D1
           D1           0.01934
 ITU=  0
     Eigenvalues ---    0.01854   0.12132   0.19820   0.28474   0.36906
     Eigenvalues ---    0.49216
 Angle between quadratic step and forces=  61.49 degrees.
 Linear search not attempted -- first point.
 Iteration  1 RMS(Cart)=  0.00053961 RMS(Int)=  0.00000028
 Iteration  2 RMS(Cart)=  0.00000019 RMS(Int)=  0.00000000
 Variable       Old X    -DE/DX   Delta X   Delta X   Delta X     New X
                                 (Linear)    (Quad)   (Total)
    R1        2.66814  -0.00003   0.00000  -0.00020  -0.00020   2.66794
    R2        1.83249   0.00022   0.00000   0.00046   0.00046   1.83295
    R3        3.28535  -0.00003   0.00000  -0.00012  -0.00012   3.28523
    A1        1.78636   0.00004   0.00000   0.00029   0.00029   1.78665
    A2        1.92263   0.00005   0.00000   0.00023   0.00023   1.92287
    D1        1.55258  -0.00002   0.00000  -0.00126  -0.00126   1.55132
         Item               Value     Threshold  Converged?
 Maximum Force            0.000218     0.000450     YES
 RMS     Force            0.000095     0.000300     YES
 Maximum Displacement     0.000649     0.001800     YES
 RMS     Displacement     0.000540     0.001200     YES
 Predicted change in Energy=-7.857916D-08
 Optimization completed.
    -- Stationary point found.
                           ----------------------------
                           !   Optimized Parameters   !
                           ! (Angstroms and Degrees)  !
 --------------------------                            --------------------------
 ! Name  Definition              Value          Derivative Info.                !
 --------------------------------------------------------------------------------
 ! R1    R(1,2)                  1.4119         -DE/DX =    0.0                 !
 ! R2    R(1,4)                  0.9697         -DE/DX =    0.0002              !
 ! R3    R(2,3)                  1.7385         -DE/DX =    0.0                 !
 ! A1    A(2,1,4)              102.351          -DE/DX =    0.0                 !
 ! A2    A(1,2,3)              110.1588         -DE/DX =    0.0001              !
 ! D1    D(4,1,2,3)             88.9562         -DE/DX =    0.0                 !
 --------------------------------------------------------------------------------
 GradGradGradGradGradGradGradGradGradGradGradGradGradGradGradGradGradGrad


 ----------------------------------------------------------------------

 Electric dipole moment (input orientation):
 (Debye = 10**-18 statcoulomb cm , SI units = C m)
                  (au)            (Debye)         (10**-30 SI)
   Tot        0.716219D+00      0.182045D+01      0.607236D+01
   x         -0.140216D+00     -0.356393D+00     -0.118880D+01
   y         -0.323674D+00     -0.822698D+00     -0.274423D+01
   z          0.623333D+00      0.158435D+01      0.528484D+01

 Dipole polarizability, Alpha (input orientation).
 (esu units = cm**3 , SI units = C**2 m**2 J**-1)
 Alpha(0;0):
               (au)            (10**-24 esu)      (10**-40 SI)
   iso        0.240670D+02      0.356636D+01      0.396811D+01
   aniso      0.221469D+02      0.328183D+01      0.365153D+01
   xx         0.385977D+02      0.571958D+01      0.636389D+01
   yx        -0.309491D+00     -0.458618D-01     -0.510282D-01
   yy         0.184407D+02      0.273263D+01      0.304046D+01
   zx        -0.138194D+01     -0.204783D+00     -0.227852D+00
   zy        -0.669320D+00     -0.991830D-01     -0.110356D+00
   zz         0.151627D+02      0.224688D+01      0.249999D+01

 ----------------------------------------------------------------------

 Dipole orientation:
     8         -2.87364380         -0.52091192          0.77574991
     8         -1.07423795          1.12929508         -0.30032104
    17          1.89480439         -0.27723025         -0.29979422
     1         -2.78566615         -0.09051006          2.55480418

 Electric dipole moment (dipole orientation):
 (Debye = 10**-18 statcoulomb cm , SI units = C m)
                  (au)            (Debye)         (10**-30 SI)
   Tot        0.716219D+00      0.182045D+01      0.607236D+01
   x          0.000000D+00      0.000000D+00      0.000000D+00
   y          0.000000D+00      0.000000D+00      0.000000D+00
   z          0.716219D+00      0.182045D+01      0.607236D+01

 Dipole polarizability, Alpha (dipole orientation).
 (esu units = cm**3 , SI units = C**2 m**2 J**-1)
 Alpha(0;0):
               (au)            (10**-24 esu)      (10**-40 SI)
   iso        0.240670D+02      0.356636D+01      0.396811D+01
   aniso      0.221469D+02      0.328183D+01      0.365153D+01
   xx         0.371654D+02      0.550735D+01      0.612775D+01
   yx        -0.219608D+01     -0.325425D+00     -0.362084D+00
   yy         0.173626D+02      0.257287D+01      0.286270D+01
   zx        -0.532803D+01     -0.789532D+00     -0.878473D+00
   zy        -0.125830D+01     -0.186461D+00     -0.207466D+00
   zz         0.176730D+02      0.261887D+01      0.291389D+01

 ----------------------------------------------------------------------
 1\1\GINC-GAMBA\Freq\RB3LYP\Gen\Cl1H1O2\IRIKURA\16-Jun-2022\0\\#N Geom=
 AllCheck Guess=TCheck SCRF=Check GenChk RB3LYP/ChkBas Freq\\chlorine h
 ydroperoxide, B3LYP/pcseg-2\\0,1\O,-1.5568316843,-0.359137712,-0.06500
 82023\O,-0.5539693332,0.6310526563,0.020465088\Cl,1.0201378921,-0.1064
 209797,-0.0080698996\H,-1.7063108746,-0.5839059646,0.8663760139\\Versi
 on=ES64L-G16RevB.01\State=1-A\HF=-611.1976957\RMSD=7.667e-10\RMSF=9.24
 2e-05\ZeroPoint=0.0169249\Thermal=0.0205978\Dipole=-0.1402159,-0.32367
 44,0.623333\DipoleDeriv=-0.6321903,0.0821482,0.0162333,-0.4082482,-0.2
 566409,-0.0148394,0.1176365,0.0410174,-0.0457042,0.7685242,-0.000907,-
 0.0115064,0.2669775,-0.0404055,0.0145942,-0.0298322,-0.0597475,-0.1370
 161,-0.4263417,-0.0419365,0.0316997,0.1880865,0.0029588,-0.0035917,-0.
 0005633,0.008672,0.0210718,0.2900077,-0.0393047,-0.0364265,-0.0468158,
 0.2940877,0.0038369,-0.087241,0.0100581,0.1616485\Polar=38.5976533,-0.
 3094909,18.44069,-1.3819433,-0.6693203,15.1626846\Quadrupole=0.8682107
 ,-0.8747453,0.0065345,0.5227799,-2.2243288,-0.8253135\PG=C01 [X(Cl1H1O
 2)]\NImag=0\\0.18888677,0.12401833,0.15800920,-0.04002489,-0.08044652,
 0.52070020,-0.10027553,-0.06726790,0.01393630,0.19649754,-0.08835715,-
 0.15525662,0.01251158,0.03062802,0.25712211,-0.01787255,-0.02193073,-0
 .04477243,-0.01429657,-0.00319562,0.03134173,-0.05774797,-0.03232240,-
 0.00147472,-0.07884271,0.07795442,0.00540252,0.13810216,-0.00866500,0.
 03153314,0.00177692,0.05619335,-0.08017448,-0.00433875,-0.04684975,0.0
 4831270,-0.00518341,0.00255419,0.00018489,0.00385149,-0.00365177,-0.00
 204303,-0.00230571,0.00228076,0.00223142,-0.03086327,-0.02442803,0.027
 56331,-0.01737929,-0.02022529,0.02676660,-0.00151147,-0.00067861,0.003
 63762,0.04975403,-0.02699618,-0.03428572,0.06615801,-0.01955347,-0.021
 69102,0.02946510,0.00121773,0.00032864,-0.00118318,0.04533193,0.055648
 10,0.06308084,0.09982305,-0.47611266,-0.00349122,-0.00566420,0.0154737
 3,-0.00162209,0.00028108,-0.00037329,-0.05796752,-0.09443992,0.4610122
 1\\-0.00004867,-0.00010448,0.00018517,-0.00001508,0.00006427,0.0000311
 3,0.00002260,-0.00002956,-0.00001259,0.00004115,0.00006977,-0.00020370
 \\\@


 IT IS NOT EASY TO DESCRIBE
     THE SEA WITH THE MOUTH

                   -- KOKYU
 Job cpu time:       0 days  0 hours  2 minutes 42.0 seconds.
 Elapsed time:       0 days  0 hours  0 minutes 13.6 seconds.
 File lengths (MBytes):  RWF=     10 Int=      0 D2E=      0 Chk=      2 Scr=      1
 Normal termination of Gaussian 16 at Thu Jun 16 12:15:34 2022.
