 Entering Gaussian System, Link 0=g16
 AtFile(1): pcseg2.gbs
            -H     0
            S   4   1.00
                  0.754732D+02           0.427821D-02
                  0.113575D+02           0.328672D-01
                  0.260081D+01           0.159578D+00
                  0.735503D+00           0.500000D+00
            S   1   1.00
                  0.231761D+00           1.0000000
            S   1   1.00
                  0.741675D-01           1.0000000
            P   1   1.00
                  0.160000D+01           1.0000000
            P   1   1.00
                  0.450000D+00           1.0000000
            D   1   1.00
                  0.125000D+01           1.0000000
            ****
            -C     0
            S   7   1.00
                  0.731999D+04           0.695369D-03
                  0.109818D+04           0.537138D-02
                  0.250014D+03           0.274734D-01
                  0.707586D+02           0.105078D+00
                  0.228595D+02           0.291262D+00
                  0.803936D+01           0.500000D+00
                  0.289309D+01           0.362224D+00
            S   2   1.00
                  0.521640D+01          -0.957844D-01
                  0.556124D+00           0.500000D+00
            S   1   1.00
                  0.228813D+00           1.0000000
            S   1   1.00
                  0.936338D-01           1.0000000
            P   4   1.00
                  0.339855D+02           0.818395D-02
                  0.772957D+01           0.586921D-01
                  0.224954D+01           0.222514D+00
                  0.767681D+00           0.500000D+00
            P   1   1.00
                  0.263283D+00           1.0000000
            P   1   1.00
                  0.848744D-01           1.0000000
            D   1   1.00
                  0.140000D+01           1.0000000
            D   1   1.00
                  0.450000D+00           1.0000000
            F   1   1.00
                  0.950000D+00           1.0000000
            ****
            -O     0
            S   7   1.00
                  0.135887D+05           0.665492D-03
                  0.203847D+04           0.514222D-02
                  0.464041D+03           0.263472D-01
                  0.131339D+03           0.101500D+00
                  0.425340D+02           0.285877D+00
                  0.150429D+02           0.500000D+00
                  0.546616D+01           0.368211D+00
            S   2   1.00
                  0.100915D+02          -0.100084D+00
                  0.110429D+01           0.500000D+00
            S   1   1.00
                  0.448082D+00           1.0000000
            S   1   1.00
                  0.175325D+00           1.0000000
            P   4   1.00
                  0.608220D+02           0.908253D-02
                  0.140332D+02           0.645878D-01
                  0.418244D+01           0.241502D+00
                  0.142490D+01           0.500000D+00
            P   1   1.00
                  0.478741D+00           1.0000000
            P   1   1.00
                  0.146257D+00           1.0000000
            D   1   1.00
                  0.220000D+01           1.0000000
            D   1   1.00
                  0.650000D+00           1.0000000
            F   1   1.00
                  0.110000D+01           1.0000000
            ****
            -N     0
            S   7   1.00
                  0.101643D+05           0.682757D-03
                  0.152481D+04           0.527488D-02
                  0.347119D+03           0.270037D-01
                  0.982389D+02           0.103673D+00
                  0.317799D+02           0.289575D+00
                  0.112240D+02           0.500000D+00
                  0.406611D+01           0.364621D+00
            S   2   1.00
                  0.747898D+01          -0.975681D-01
                  0.805040D+00           0.500000D+00
            S   1   1.00
                  0.324626D+00           1.0000000
            S   1   1.00
                  0.128132D+00           1.0000000
            P   4   1.00
                  0.482704D+02           0.829547D-02
                  0.110815D+02           0.596223D-01
                  0.326643D+01           0.227889D+00
                  0.111680D+01           0.500000D+00
            P   1   1.00
                  0.382049D+00           1.0000000
            P   1   1.00
                  0.121222D+00           1.0000000
            D   1   1.00
                  0.180000D+01           1.0000000
            D   1   1.00
                  0.550000D+00           1.0000000
            F   1   1.00
                  0.102000D+01           1.0000000
            ****
            -F     0
            S   7   1.00
                  0.174507D+05           0.655972D-03
                  0.261768D+04           0.506944D-02
                  0.595857D+03           0.259899D-01
                  0.168651D+03           0.100353D+00
                  0.546654D+02           0.284095D+00
                  0.193717D+02           0.500000D+00
                  0.706202D+01           0.370721D+00
            S   2   1.00
                  0.131197D+02          -0.101997D+00
                  0.145046D+01           0.500000D+00
            S   1   1.00
                  0.588255D+00           1.0000000
            S   1   1.00
                  0.227960D+00           1.0000000
            P   4   1.00
                  0.779407D+02           0.931135D-02
                  0.180425D+02           0.663964D-01
                  0.542342D+01           0.246386D+00
                  0.184876D+01           0.500000D+00
            P   1   1.00
                  0.617455D+00           1.0000000
            P   1   1.00
                  0.185496D+00           1.0000000
            D   1   1.00
                  0.280000D+01           1.0000000
            D   1   1.00
                  0.800000D+00           1.0000000
            F   1   1.00
                  0.120000D+01           1.0000000
            ****
            -Cl     0
            S   8   1.00
                  0.154272D+06           0.222473D-03
                  0.231232D+05           0.172590D-02
                  0.526257D+04           0.899286D-02
                  0.148995D+04           0.367724D-01
                  0.485417D+03           0.121446D+00
                  0.174634D+03           0.304148D+00
                  0.672393D+02           0.500000D+00
                  0.265780D+02           0.360252D+00
            S   3   1.00
                  0.131826D+03          -0.531330D-01
                  0.400703D+02          -0.233346D+00
                  0.789448D+01           0.500000D+00
            S   2   1.00
                  0.427711D+01           0.500000D+00
                  0.196233D+01           0.370517D+00
            S   1   1.00
                  0.520793D+00           1.0000000
            S   1   1.00
                  0.181633D+00           1.0000000
            P   7   1.00
                  0.124440D+04           0.988206D-03
                  0.295109D+03           0.829674D-02
                  0.947224D+02           0.430906D-01
                  0.352588D+02           0.148443D+00
                  0.144211D+02           0.344744D+00
                  0.610371D+01           0.500000D+00
                  0.258886D+01           0.348278D+00
            P   2   1.00
                  0.109447D+02          -0.196768D-01
                  0.104413D+01           0.500000D+00
            P   1   1.00
                  0.376184D+00           1.0000000
            P   1   1.00
                  0.120613D+00           1.0000000
            D   1   1.00
                  0.231000D+01           1.0000000
            D   1   1.00
                  0.520000D+00           1.0000000
            F   1   1.00
                  0.720000D+00           1.0000000
            ****
            -S     0
            S   8   1.00
                  0.134700D+06           0.226231D-03
                  0.201904D+05           0.175488D-02
                  0.459528D+04           0.914190D-02
                  0.130109D+04           0.373551D-01
                  0.423902D+03           0.123121D+00
                  0.152485D+03           0.306801D+00
                  0.586925D+02           0.500000D+00
                  0.231461D+02           0.354358D+00
            S   3   1.00
                  0.116327D+03          -0.491772D-01
                  0.352841D+02          -0.215962D+00
                  0.677831D+01           0.500000D+00
            S   2   1.00
                  0.360404D+01           0.500000D+00
                  0.164871D+01           0.366278D+00
            S   1   1.00
                  0.421821D+00           1.0000000
            S   1   1.00
                  0.147554D+00           1.0000000
            P   7   1.00
                  0.104863D+04           0.105273D-02
                  0.248717D+03           0.879338D-02
                  0.797887D+02           0.453358D-01
                  0.296023D+02           0.154476D+00
                  0.120627D+02           0.352366D+00
                  0.507628D+01           0.500000D+00
                  0.213375D+01           0.346429D+00
            P   2   1.00
                  0.928958D+01          -0.185932D-01
                  0.837819D+00           0.500000D+00
            P   1   1.00
                  0.301495D+00           1.0000000
            P   1   1.00
                  0.974740D-01           1.0000000
            D   1   1.00
                  0.210000D+01           1.0000000
            D   1   1.00
                  0.480000D+00           1.0000000
            F   1   1.00
                  0.660000D+00           1.0000000
            ****
            -Br     0
            S    10   1.00
                  0.233625D+07           0.532336D-04
                  0.349961D+06           0.413715D-03
                  0.796444D+05           0.217123D-02
                  0.225555D+05           0.910109D-02
                  0.735546D+04           0.323789D-01
                  0.265352D+04           0.988755D-01
                  0.103517D+04           0.248138D+00
                  0.422205D+03           0.474328D+00
                  0.180035D+03           0.500000D+00
                  0.793308D+02           0.187769D+00
            S    4   1.00
                  0.620834D+03          -0.226511D-01
                  0.190829D+03          -0.109497D+00
                  0.312505D+02           0.500000D+00
                  0.135270D+02           0.492812D+00
            S    2   1.00
                  0.216097D+02          -0.165418D+00
                  0.372566D+01           0.500000D+00
            S    1   1.00
                  0.169770D+01           1.0000000
            S    1   1.00
                  0.489332D+00           1.0000000
            S    1   1.00
                  0.175712D+00           1.0000000
            P    8   1.00
                  0.960829D+04           0.478974D-03
                  0.227618D+04           0.417853D-02
                  0.736723D+03           0.229315D-01
                  0.281579D+03           0.892653D-01
                  0.118395D+03           0.255288D+00
                  0.527481D+02           0.479074D+00
                  0.245098D+02           0.500000D+00
                  0.112009D+02           0.200944D+00
            P    4   1.00
                  0.587849D+02          -0.189674D-01
                  0.918962D+01           0.264104D+00
                  0.413895D+01           0.500000D+00
                  0.184225D+01           0.319316D+00
            P    1   1.00
                  0.713862D+00           1.0000000
            P    1   1.00
                  0.274232D+00           1.0000000
            P    1   1.00
                  0.944411D-01           1.0000000
            D    7   1.00
                  0.398470D+03           0.204066D-02
                  0.118967D+03           0.175171D-01
                  0.450197D+02           0.829708D-01
                  0.190320D+02           0.236284D+00
                  0.855686D+01           0.428468D+00
                  0.382950D+01           0.500000D+00
                  0.166291D+01           0.349360D+00
            D    1   1.00
                  0.672953D+00           1.0000000
            D    1   1.00
                  0.252000D+00           1.0000000
            F    1   1.00
                  0.530000D+00           1.0000000
            ****
            -Si     0
            S    8   1.00
                  0.996133D+05           0.235546D-03
                  0.149311D+05           0.182707D-02
                  0.339820D+04           0.951425D-02
                  0.962140D+03           0.388172D-01
                  0.313430D+03           0.127328D+00
                  0.112683D+03           0.313522D+00
                  0.433372D+02           0.500000D+00
                  0.170029D+02           0.340347D+00
            S    3   1.00
                  0.884208D+02          -0.404451D-01
                  0.266756D+02          -0.178059D+00
                  0.479640D+01           0.500000D+00
            S    2   1.00
                  0.239385D+01           0.500000D+00
                  0.108333D+01           0.338016D+00
            S    1   1.00
                  0.252420D+00           1.0000000
            S    1   1.00
                  0.891210D-01           1.0000000
            P    7   1.00
                  0.709901D+03           0.123028D-02
                  0.168426D+03           0.101366D-01
                  0.539946D+02           0.511840D-01
                  0.198646D+02           0.169967D+00
                  0.801369D+01           0.370717D+00
                  0.331870D+01           0.500000D+00
                  0.136112D+01           0.344128D+00
            P    2   1.00
                  0.622158D+01          -0.166609D-01
                  0.503049D+00           0.500000D+00
            P    1   1.00
                  0.179848D+00           1.0000000
            P    1   1.00
                  0.591912D-01           1.0000000
            D    1   1.00
                  0.168000D+01           1.0000000
            D    1   1.00
                  0.380000D+00           1.0000000
            F    1   1.00
                  0.540000D+00           1.0000000
            ****
            -P     0
            S    8   1.00
                  0.116416D+06           0.230715D-03
                  0.174500D+05           0.178960D-02
                  0.397149D+04           0.932116D-02
                  0.112447D+04           0.380591D-01
                  0.366347D+03           0.125148D+00
                  0.131757D+03           0.310022D+00
                  0.506988D+02           0.500000D+00
                  0.199436D+02           0.347528D+00
            S    3   1.00
                  0.101878D+03          -0.446755D-01
                  0.308249D+02          -0.196376D+00
                  0.573688D+01           0.500000D+00
            S    2   1.00
                  0.296868D+01           0.500000D+00
                  0.135315D+01           0.355098D+00
            S    1   1.00
                  0.332196D+00           1.0000000
            S    1   1.00
                  0.116229D+00           1.0000000
            P    7   1.00
                  0.873928D+03           0.112375D-02
                  0.207298D+03           0.933330D-02
                  0.664628D+02           0.477213D-01
                  0.245665D+02           0.160733D+00
                  0.996820D+01           0.359760D+00
                  0.416536D+01           0.500000D+00
                  0.173022D+01           0.346593D+00
            P    2   1.00
                  0.772530D+01          -0.175718D-01
                  0.657252D+00           0.500000D+00
            P    1   1.00
                  0.239903D+00           1.0000000
            P    1   1.00
                  0.800988D-01           1.0000000
            D    1   1.00
                  0.189000D+01           1.0000000
            D    1   1.00
                  0.430000D+00           1.0000000
            F    1   1.00
                  0.600000D+00           1.0000000
            ****
            
 Initial command:
 /usr/local/apps/g16_b01_avx/g16/l1.exe "/wrk/irikura/Gau-392662.inp" -scrdir="/wrk/irikura/"
 Entering Link 1 = /usr/local/apps/g16_b01_avx/g16/l1.exe PID=    392664.
  
 Copyright (c) 1988-2017, Gaussian, Inc.  All Rights Reserved.
  
 This is part of the Gaussian(R) 16 program.  It is based on
 the Gaussian(R) 09 system (copyright 2009, Gaussian, Inc.),
 the Gaussian(R) 03 system (copyright 2003, Gaussian, Inc.),
 the Gaussian(R) 98 system (copyright 1998, Gaussian, Inc.),
 the Gaussian(R) 94 system (copyright 1995, Gaussian, Inc.),
 the Gaussian 92(TM) system (copyright 1992, Gaussian, Inc.),
 the Gaussian 90(TM) system (copyright 1990, Gaussian, Inc.),
 the Gaussian 88(TM) system (copyright 1988, Gaussian, Inc.),
 the Gaussian 86(TM) system (copyright 1986, Carnegie Mellon
 University), and the Gaussian 82(TM) system (copyright 1983,
 Carnegie Mellon University). Gaussian is a federally registered
 trademark of Gaussian, Inc.
  
 This software contains proprietary and confidential information,
 including trade secrets, belonging to Gaussian, Inc.
  
 This software is provided under written license and may be
 used, copied, transmitted, or stored only in accord with that
 written license.
  
 The following legend is applicable only to US Government
 contracts under FAR:
  
                    RESTRICTED RIGHTS LEGEND
  
 Use, reproduction and disclosure by the US Government is
 subject to restrictions as set forth in subparagraphs (a)
 and (c) of the Commercial Computer Software - Restricted
 Rights clause in FAR 52.227-19.
  
 Gaussian, Inc.
 340 Quinnipiac St., Bldg. 40, Wallingford CT 06492
  
  
 ---------------------------------------------------------------
 Warning -- This program may not be used in any manner that
 competes with the business of Gaussian, Inc. or will provide
 assistance to any competitor of Gaussian, Inc.  The licensee
 of this program is prohibited from giving any competitor of
 Gaussian, Inc. access to this program.  By using this program,
 the user acknowledges that Gaussian, Inc. is engaged in the
 business of creating and licensing software in the field of
 computational chemistry and represents and warrants to the
 licensee that it is not a competitor of Gaussian, Inc. and that
 it will not use this program in any manner prohibited above.
 ---------------------------------------------------------------
  

 Cite this work as:
 Gaussian 16, Revision B.01,
 M. J. Frisch, G. W. Trucks, H. B. Schlegel, G. E. Scuseria, 
 M. A. Robb, J. R. Cheeseman, G. Scalmani, V. Barone, 
 G. A. Petersson, H. Nakatsuji, X. Li, M. Caricato, A. V. Marenich, 
 J. Bloino, B. G. Janesko, R. Gomperts, B. Mennucci, H. P. Hratchian, 
 J. V. Ortiz, A. F. Izmaylov, J. L. Sonnenberg, D. Williams-Young, 
 F. Ding, F. Lipparini, F. Egidi, J. Goings, B. Peng, A. Petrone, 
 T. Henderson, D. Ranasinghe, V. G. Zakrzewski, J. Gao, N. Rega, 
 G. Zheng, W. Liang, M. Hada, M. Ehara, K. Toyota, R. Fukuda, 
 J. Hasegawa, M. Ishida, T. Nakajima, Y. Honda, O. Kitao, H. Nakai, 
 T. Vreven, K. Throssell, J. A. Montgomery, Jr., J. E. Peralta, 
 F. Ogliaro, M. J. Bearpark, J. J. Heyd, E. N. Brothers, K. N. Kudin, 
 V. N. Staroverov, T. A. Keith, R. Kobayashi, J. Normand, 
 K. Raghavachari, A. P. Rendell, J. C. Burant, S. S. Iyengar, 
 J. Tomasi, M. Cossi, J. M. Millam, M. Klene, C. Adamo, R. Cammi, 
 J. W. Ochterski, R. L. Martin, K. Morokuma, O. Farkas, 
 J. B. Foresman, and D. J. Fox, Gaussian, Inc., Wallingford CT, 2016.
 
 ******************************************
 Gaussian 16:  ES64L-G16RevB.01 20-Dec-2017
                29-Sep-2023 
 ******************************************
 %chk=hoono.chk
 %mem=500mw
 %nprocs=4
 Will use up to    4 processors via shared memory.
 ---------------------------------------
 # b3lyp/gen opt freq CPHF(Grid=OneStep)
 ---------------------------------------
 1/18=20,19=15,26=3,38=1/1,3;
 2/9=110,12=2,17=6,18=5,40=1/2;
 3/5=7,11=2,25=1,30=1,71=1,74=-5/1,2,3;
 4//1;
 5/5=2,38=5/2;
 6/7=2,8=2,9=2,10=2,28=1/1;
 7//1,2,3,16;
 1/18=20,19=15,26=3/3(2);
 2/9=110/2;
 99//99;
 2/9=110/2;
 3/5=7,6=1,11=2,25=1,30=1,71=1,74=-5,82=7/1,2,3;
 4/5=5,16=3,69=1/1;
 5/5=2,38=5/2;
 7//1,2,3,16;
 1/18=20,19=15,26=3/3(-5);
 2/9=110/2;
 6/7=2,8=2,9=2,10=2,19=2,28=1/1;
 99/9=1/99;
 ---------------------------------
 peroxynitrous acid, B3LYP/pcseg-2
 ---------------------------------
 Symbolic Z-matrix:
 Charge =  0 Multiplicity = 1
 O                    -0.60314  -1.16782   0. 
 N                    -0.99275  -0.05172   0. 
 O                     0.        0.90637   0. 
 O                     1.32757   0.37995   0. 
 H                     1.15386  -0.58596   0. 
 

 GradGradGradGradGradGradGradGradGradGradGradGradGradGradGradGradGradGrad
 Berny optimization.
 Initialization pass.
                           ----------------------------
                           !    Initial Parameters    !
                           ! (Angstroms and Degrees)  !
 --------------------------                            --------------------------
 ! Name  Definition              Value          Derivative Info.                !
 --------------------------------------------------------------------------------
 ! R1    R(1,2)                  1.1821         estimate D2E/DX2                !
 ! R2    R(2,3)                  1.3797         estimate D2E/DX2                !
 ! R3    R(3,4)                  1.4281         estimate D2E/DX2                !
 ! R4    R(4,5)                  0.9814         estimate D2E/DX2                !
 ! A1    A(1,2,3)              114.7388         estimate D2E/DX2                !
 ! A2    A(2,3,4)              114.3884         estimate D2E/DX2                !
 ! A3    A(3,4,5)              101.4344         estimate D2E/DX2                !
 ! D1    D(1,2,3,4)              0.0            estimate D2E/DX2                !
 ! D2    D(2,3,4,5)              0.0            estimate D2E/DX2                !
 --------------------------------------------------------------------------------
 Trust Radius=3.00D-01 FncErr=1.00D-07 GrdErr=1.00D-06 EigMax=2.50D+02 EigMin=1.00D-04
 Number of steps in this run=     20 maximum allowed number of steps=    100.
 GradGradGradGradGradGradGradGradGradGradGradGradGradGradGradGradGradGrad

                          Input orientation:                          
 ---------------------------------------------------------------------
 Center     Atomic      Atomic             Coordinates (Angstroms)
 Number     Number       Type             X           Y           Z
 ---------------------------------------------------------------------
      1          8           0       -0.603144   -1.167815    0.000000
      2          7           0       -0.992753   -0.051720    0.000000
      3          8           0        0.000000    0.906366    0.000000
      4          8           0        1.327571    0.379949    0.000000
      5          1           0        1.153859   -0.585958    0.000000
 ---------------------------------------------------------------------
                    Distance matrix (angstroms):
                    1          2          3          4          5
     1  O    0.000000
     2  N    1.182143   0.000000
     3  O    2.160095   1.379669   0.000000
     4  O    2.474517   2.360136   1.428132   0.000000
     5  H    1.850842   2.212093   1.886378   0.981403   0.000000
 Stoichiometry    HNO3
 Framework group  CS[SG(HNO3)]
 Deg. of freedom     7
 Full point group                 CS      NOp   2
 Largest Abelian subgroup         CS      NOp   2
 Largest concise Abelian subgroup C1      NOp   1
                         Standard orientation:                         
 ---------------------------------------------------------------------
 Center     Atomic      Atomic             Coordinates (Angstroms)
 Number     Number       Type             X           Y           Z
 ---------------------------------------------------------------------
      1          8           0       -0.603144   -1.167815    0.000000
      2          7           0       -0.992753   -0.051720    0.000000
      3          8           0       -0.000000    0.906366    0.000000
      4          8           0        1.327571    0.379949    0.000000
      5          1           0        1.153859   -0.585958    0.000000
 ---------------------------------------------------------------------
 Rotational constants (GHZ):          21.8120124           7.9460348           5.8242736
 General basis read from cards:  (5D, 7F)
 There are   107 symmetry adapted cartesian basis functions of A'  symmetry.
 There are    48 symmetry adapted cartesian basis functions of A"  symmetry.
 There are    90 symmetry adapted basis functions of A'  symmetry.
 There are    44 symmetry adapted basis functions of A"  symmetry.
   134 basis functions,   222 primitive gaussians,   155 cartesian basis functions
    16 alpha electrons       16 beta electrons
       nuclear repulsion energy       122.7021884717 Hartrees.
 NAtoms=    5 NActive=    5 NUniq=    5 SFac= 1.00D+00 NAtFMM=   60 NAOKFM=F Big=F
 Integral buffers will be    131072 words long.
 Raffenetti 2 integral format.
 Two-electron integral symmetry is turned on.
 One-electron integrals computed using PRISM.
 NBasis=   134 RedAO= T EigKep=  1.00D-03  NBF=    90    44
 NBsUse=   134 1.00D-06 EigRej= -1.00D+00 NBFU=    90    44
 ExpMin= 7.42D-02 ExpMax= 1.36D+04 ExpMxC= 4.64D+02 IAcc=3 IRadAn=         5 AccDes= 0.00D+00
 Harris functional with IExCor=  402 and IRadAn=       5 diagonalized for initial guess.
 HarFok:  IExCor=  402 AccDes= 0.00D+00 IRadAn=         5 IDoV= 1 UseB2=F ITyADJ=14
 ICtDFT=  3500011 ScaDFX=  1.000000  1.000000  1.000000  1.000000
 FoFCou: FMM=F IPFlag=           0 FMFlag=      100000 FMFlg1=           0
         NFxFlg=           0 DoJE=T BraDBF=F KetDBF=T FulRan=T
         wScrn=  0.000000 ICntrl=       500 IOpCl=  0 I1Cent=   200000004 NGrid=           0
         NMat0=    1 NMatS0=      1 NMatT0=    0 NMatD0=    1 NMtDS0=    0 NMtDT0=    0
 Petite list used in FoFCou.
 Initial guess orbital symmetries:
       Occupied  (A') (A') (A') (A') (A') (A') (A') (A') (A') (A')
                 (A") (A') (A") (A') (A") (A')
       Virtual   (A") (A') (A') (A') (A') (A') (A") (A') (A') (A')
                 (A') (A") (A") (A') (A') (A') (A") (A') (A') (A')
                 (A') (A') (A") (A') (A") (A') (A") (A') (A") (A')
                 (A') (A") (A') (A') (A') (A") (A") (A') (A') (A')
                 (A") (A') (A') (A") (A') (A") (A') (A") (A') (A')
                 (A") (A') (A") (A') (A') (A') (A') (A') (A") (A')
                 (A') (A") (A") (A') (A') (A") (A") (A") (A') (A')
                 (A') (A") (A') (A') (A') (A") (A') (A') (A") (A')
                 (A') (A') (A") (A") (A') (A') (A') (A") (A") (A")
                 (A') (A") (A') (A') (A") (A') (A") (A") (A") (A')
                 (A') (A") (A') (A') (A") (A') (A") (A') (A') (A')
                 (A") (A') (A') (A') (A') (A') (A') (A')
 The electronic state of the initial guess is 1-A'.
 Keep R1 ints in memory in symmetry-blocked form, NReq=61705485.
 Requested convergence on RMS density matrix=1.00D-08 within 128 cycles.
 Requested convergence on MAX density matrix=1.00D-06.
 Requested convergence on             energy=1.00D-06.
 No special actions if energy rises.
 Integral accuracy reduced to 1.0D-05 until final iterations.
 Initial convergence to 1.0D-05 achieved.  Increase integral accuracy.
 SCF Done:  E(RB3LYP) =  -280.961578068     A.U. after   14 cycles
            NFock= 14  Conv=0.94D-08     -V/T= 2.0028

 **********************************************************************

            Population analysis using the SCF Density.

 **********************************************************************

 Orbital symmetries:
       Occupied  (A') (A') (A') (A') (A') (A') (A') (A') (A') (A")
                 (A') (A') (A') (A") (A') (A")
       Virtual   (A") (A') (A') (A') (A') (A') (A") (A') (A') (A')
                 (A') (A") (A") (A') (A') (A') (A") (A') (A') (A')
                 (A') (A') (A") (A') (A") (A') (A") (A') (A") (A')
                 (A') (A') (A") (A') (A") (A') (A') (A") (A') (A')
                 (A') (A") (A') (A") (A') (A") (A') (A") (A') (A')
                 (A") (A') (A") (A') (A') (A') (A') (A') (A") (A')
                 (A") (A') (A") (A') (A') (A") (A") (A") (A') (A')
                 (A') (A") (A') (A') (A') (A") (A') (A') (A") (A')
                 (A') (A') (A") (A") (A') (A') (A') (A") (A") (A")
                 (A') (A") (A') (A') (A") (A') (A") (A') (A") (A")
                 (A') (A') (A") (A') (A") (A') (A") (A') (A') (A")
                 (A') (A') (A') (A') (A') (A') (A') (A')
 The electronic state is 1-A'.
 Alpha  occ. eigenvalues --  -19.28588 -19.23760 -19.22998 -14.53048  -1.28169
 Alpha  occ. eigenvalues --   -1.16453  -0.98561  -0.71759  -0.62512  -0.55636
 Alpha  occ. eigenvalues --   -0.55453  -0.45729  -0.45078  -0.44673  -0.33378
 Alpha  occ. eigenvalues --   -0.32689
 Alpha virt. eigenvalues --   -0.11428  -0.03859   0.04051   0.10893   0.17689
 Alpha virt. eigenvalues --    0.20333   0.23057   0.24613   0.25523   0.29666
 Alpha virt. eigenvalues --    0.31836   0.33188   0.35961   0.39233   0.40604
 Alpha virt. eigenvalues --    0.43050   0.44659   0.49463   0.55488   0.60244
 Alpha virt. eigenvalues --    0.72904   0.75884   0.75976   0.89200   1.05083
 Alpha virt. eigenvalues --    1.07915   1.08998   1.23210   1.29060   1.36860
 Alpha virt. eigenvalues --    1.41350   1.43202   1.43386   1.60057   1.67100
 Alpha virt. eigenvalues --    1.67983   1.76467   1.76479   1.80804   1.83476
 Alpha virt. eigenvalues --    1.83975   1.84526   1.95023   1.98181   2.03069
 Alpha virt. eigenvalues --    2.05213   2.10881   2.23345   2.26388   2.29729
 Alpha virt. eigenvalues --    2.34798   2.42871   2.47917   2.56383   2.69380
 Alpha virt. eigenvalues --    2.72036   2.84626   3.04973   3.26736   3.36457
 Alpha virt. eigenvalues --    3.43062   3.44248   3.47436   3.50589   3.56483
 Alpha virt. eigenvalues --    3.60511   3.67817   3.76600   3.78043   3.79830
 Alpha virt. eigenvalues --    3.85361   3.94254   3.94793   3.99352   4.11788
 Alpha virt. eigenvalues --    4.12458   4.24430   4.26943   4.42885   4.44941
 Alpha virt. eigenvalues --    4.49131   4.54945   4.63649   4.67372   4.72620
 Alpha virt. eigenvalues --    4.83426   4.96500   5.04366   5.05223   5.14040
 Alpha virt. eigenvalues --    5.26461   5.33520   5.35113   5.55631   5.76757
 Alpha virt. eigenvalues --    5.81478   5.94852   6.00921   6.01080   6.03110
 Alpha virt. eigenvalues --    6.09888   6.14864   6.17658   6.21158   6.31314
 Alpha virt. eigenvalues --    6.39146   6.44016   6.46621   6.56682   6.61290
 Alpha virt. eigenvalues --    6.62027   6.79735   6.90662   7.04900   7.20569
 Alpha virt. eigenvalues --    7.44736   8.30676  10.19369
          Condensed to atoms (all electrons):
               1          2          3          4          5
     1  O    8.017741   0.304764  -0.094026  -0.018005   0.045532
     2  N    0.304764   6.401972   0.061393  -0.007466  -0.008628
     3  O   -0.094026   0.061393   8.058711   0.021101  -0.024450
     4  O   -0.018005  -0.007466   0.021101   7.865010   0.317206
     5  H    0.045532  -0.008628  -0.024450   0.317206   0.461727
 Mulliken charges:
               1
     1  O   -0.256005
     2  N    0.247965
     3  O   -0.022729
     4  O   -0.177846
     5  H    0.208614
 Sum of Mulliken charges =   0.00000
 Mulliken charges with hydrogens summed into heavy atoms:
               1
     1  O   -0.256005
     2  N    0.247965
     3  O   -0.022729
     4  O    0.030769
 Electronic spatial extent (au):  <R**2>=            208.4950
 Charge=              0.0000 electrons
 Dipole moment (field-independent basis, Debye):
    X=              0.2082    Y=             -0.9560    Z=              0.0000  Tot=              0.9784
 Quadrupole moment (field-independent basis, Debye-Ang):
   XX=            -23.0966   YY=            -23.3125   ZZ=            -21.5328
   XY=             -2.2511   XZ=              0.0000   YZ=              0.0000
 Traceless Quadrupole moment (field-independent basis, Debye-Ang):
   XX=             -0.4493   YY=             -0.6652   ZZ=              1.1145
   XY=             -2.2511   XZ=              0.0000   YZ=              0.0000
 Octapole moment (field-independent basis, Debye-Ang**2):
  XXX=              2.6497  YYY=              0.9505  ZZZ=              0.0000  XYY=              2.5187
  XXY=             -3.0157  XXZ=              0.0000  XZZ=             -0.4449  YZZ=             -0.5648
  YYZ=              0.0000  XYZ=              0.0000
 Hexadecapole moment (field-independent basis, Debye-Ang**3):
 XXXX=           -127.9042 YYYY=            -95.6098 ZZZZ=            -17.2704 XXXY=            -22.9688
 XXXZ=              0.0000 YYYX=            -20.9964 YYYZ=              0.0000 ZZZX=              0.0000
 ZZZY=              0.0000 XXYY=            -35.8676 XXZZ=            -24.2088 YYZZ=            -18.4627
 XXYZ=              0.0000 YYXZ=              0.0000 ZZXY=             -6.3618
 N-N= 1.227021884717D+02 E-N=-9.080487300827D+02  KE= 2.801794494172D+02
 Symmetry A'   KE= 2.662036477837D+02
 Symmetry A"   KE= 1.397580163354D+01
 Calling FoFJK, ICntrl=      2127 FMM=F ISym2X=1 I1Cent= 0 IOpClX= 0 NMat=1 NMatS=1 NMatT=0.
 ***** Axes restored to original set *****
 -------------------------------------------------------------------
 Center     Atomic                   Forces (Hartrees/Bohr)
 Number     Number              X              Y              Z
 -------------------------------------------------------------------
      1        8           0.000001880   -0.000240610   -0.000000000
      2        7          -0.000075817    0.000005437   -0.000000000
      3        8           0.000227984    0.000262065   -0.000000000
      4        8          -0.000183799    0.000073439   -0.000000000
      5        1           0.000029752   -0.000100331   -0.000000000
 -------------------------------------------------------------------
 Cartesian Forces:  Max     0.000262065 RMS     0.000125022

 GradGradGradGradGradGradGradGradGradGradGradGradGradGradGradGradGradGrad
 Berny optimization.
 FormGI is forming the generalized inverse of G from B-inverse, IUseBI=4.
 Internal  Forces:  Max     0.000227730 RMS     0.000141717
 Search for a local minimum.
 Step number   1 out of a maximum of   20
 All quantities printed in internal units (Hartrees-Bohrs-Radians)
 Mixed Optimization -- En-DIIS/RFO-DIIS
 Second derivative matrix not updated -- first step.
 The second derivative matrix:
                          R1        R2        R3        R4        A1
           R1           1.14333
           R2           0.00000   0.49163
           R3           0.00000   0.00000   0.41259
           R4           0.00000   0.00000   0.00000   0.51113
           A1           0.00000   0.00000   0.00000   0.00000   0.25000
           A2           0.00000   0.00000   0.00000   0.00000   0.00000
           A3           0.00000   0.00000   0.00000   0.00000   0.00000
           D1           0.00000   0.00000   0.00000   0.00000   0.00000
           D2           0.00000   0.00000   0.00000   0.00000   0.00000
                          A2        A3        D1        D2
           A2           0.25000
           A3           0.00000   0.16000
           D1           0.00000   0.00000   0.01564
           D2           0.00000   0.00000   0.00000   0.00923
 ITU=  0
     Eigenvalues ---    0.00923   0.01564   0.16000   0.25000   0.25000
     Eigenvalues ---    0.41259   0.49163   0.51113   1.14333
 RFO step:  Lambda=-4.40041835D-07 EMin= 9.22678979D-03
 Linear search not attempted -- first point.
 Iteration  1 RMS(Cart)=  0.00040015 RMS(Int)=  0.00000009
 Iteration  2 RMS(Cart)=  0.00000007 RMS(Int)=  0.00000000
 ClnCor:  largest displacement from symmetrization is 5.22D-11 for atom     3.
 Variable       Old X    -DE/DX   Delta X   Delta X   Delta X     New X
                                 (Linear)    (Quad)   (Total)
    R1        2.23393   0.00023   0.00000   0.00020   0.00020   2.23413
    R2        2.60720   0.00022   0.00000   0.00044   0.00044   2.60764
    R3        2.69878  -0.00013   0.00000  -0.00032  -0.00032   2.69845
    R4        1.85458   0.00009   0.00000   0.00018   0.00018   1.85477
    A1        2.00257   0.00017   0.00000   0.00069   0.00069   2.00326
    A2        1.99645  -0.00013   0.00000  -0.00054  -0.00054   1.99592
    A3        1.77036   0.00009   0.00000   0.00055   0.00055   1.77091
    D1        0.00000   0.00000   0.00000  -0.00000   0.00000   0.00000
    D2        0.00000   0.00000   0.00000   0.00000   0.00000   0.00000
         Item               Value     Threshold  Converged?
 Maximum Force            0.000228     0.000450     YES
 RMS     Force            0.000142     0.000300     YES
 Maximum Displacement     0.000699     0.001800     YES
 RMS     Displacement     0.000400     0.001200     YES
 Predicted change in Energy=-2.200209D-07
 Optimization completed.
    -- Stationary point found.
                           ----------------------------
                           !   Optimized Parameters   !
                           ! (Angstroms and Degrees)  !
 --------------------------                            --------------------------
 ! Name  Definition              Value          Derivative Info.                !
 --------------------------------------------------------------------------------
 ! R1    R(1,2)                  1.1821         -DE/DX =    0.0002              !
 ! R2    R(2,3)                  1.3797         -DE/DX =    0.0002              !
 ! R3    R(3,4)                  1.4281         -DE/DX =   -0.0001              !
 ! R4    R(4,5)                  0.9814         -DE/DX =    0.0001              !
 ! A1    A(1,2,3)              114.7388         -DE/DX =    0.0002              !
 ! A2    A(2,3,4)              114.3884         -DE/DX =   -0.0001              !
 ! A3    A(3,4,5)              101.4344         -DE/DX =    0.0001              !
 ! D1    D(1,2,3,4)              0.0            -DE/DX =    0.0                 !
 ! D2    D(2,3,4,5)              0.0            -DE/DX =    0.0                 !
 --------------------------------------------------------------------------------
 GradGradGradGradGradGradGradGradGradGradGradGradGradGradGradGradGradGrad

                          Input orientation:                          
 ---------------------------------------------------------------------
 Center     Atomic      Atomic             Coordinates (Angstroms)
 Number     Number       Type             X           Y           Z
 ---------------------------------------------------------------------
      1          8           0       -0.603144   -1.167815    0.000000
      2          7           0       -0.992753   -0.051720    0.000000
      3          8           0        0.000000    0.906366    0.000000
      4          8           0        1.327571    0.379949    0.000000
      5          1           0        1.153859   -0.585958    0.000000
 ---------------------------------------------------------------------
                    Distance matrix (angstroms):
                    1          2          3          4          5
     1  O    0.000000
     2  N    1.182143   0.000000
     3  O    2.160095   1.379669   0.000000
     4  O    2.474517   2.360136   1.428132   0.000000
     5  H    1.850842   2.212093   1.886378   0.981403   0.000000
 Stoichiometry    HNO3
 Framework group  CS[SG(HNO3)]
 Deg. of freedom     7
 Full point group                 CS      NOp   2
 Largest Abelian subgroup         CS      NOp   2
 Largest concise Abelian subgroup C1      NOp   1
                         Standard orientation:                         
 ---------------------------------------------------------------------
 Center     Atomic      Atomic             Coordinates (Angstroms)
 Number     Number       Type             X           Y           Z
 ---------------------------------------------------------------------
      1          8           0       -0.603144   -1.167815    0.000000
      2          7           0       -0.992753   -0.051720    0.000000
      3          8           0       -0.000000    0.906366    0.000000
      4          8           0        1.327571    0.379949    0.000000
      5          1           0        1.153859   -0.585958    0.000000
 ---------------------------------------------------------------------
 Rotational constants (GHZ):          21.8120124           7.9460348           5.8242736
 1\1\GINC-GAMBA\FOpt\RB3LYP\Gen\H1N1O3\IRIKURA\29-Sep-2023\0\\# b3lyp/g
 en opt freq CPHF(Grid=OneStep)\\peroxynitrous acid, B3LYP/pcseg-2\\0,1
 \O,-0.603144,-1.167815,0.\N,-0.992753,-0.05172,0.\O,0.,0.906366,0.\O,1
 .327571,0.379949,0.\H,1.153859,-0.585958,0.\\Version=ES64L-G16RevB.01\
 State=1-A'\HF=-280.9615781\RMSD=9.376e-09\RMSF=1.250e-04\Dipole=0.0819
 009,-0.3761129,0.\Quadrupole=-0.3340343,-0.494539,0.8285733,-1.6736391
 ,0.,0.\PG=CS [SG(H1N1O3)]\\@


 GETTING A SIMPLE ANSWER FROM A PROFESSOR IS LIKE
 GETTING A THIMBLE OF WATER FROM A FIRE HYDRANT.
     -- PROF. LEN SHAPIRO, NDSU
 Job cpu time:       0 days  0 hours  0 minutes 37.9 seconds.
 Elapsed time:       0 days  0 hours  0 minutes  9.7 seconds.
 File lengths (MBytes):  RWF=     11 Int=      0 D2E=      0 Chk=      2 Scr=      1
 Normal termination of Gaussian 16 at Fri Sep 29 13:49:52 2023.
 Link1:  Proceeding to internal job step number  2.
 ------------------------------------------------------------------
 #N Geom=AllCheck Guess=TCheck SCRF=Check GenChk RB3LYP/ChkBas Freq
 ------------------------------------------------------------------
 1/10=4,29=7,30=1,38=1,40=1/1,3;
 2/12=2,40=1/2;
 3/5=7,6=2,11=2,14=-4,25=1,30=1,67=1,70=2,71=2,74=-5,82=7,116=1,140=1/1,2,3;
 4/5=101/1;
 5/5=2,38=6,98=1/2;
 8/6=4,10=90,11=11/1;
 11/6=1,8=1,9=11,15=111,16=1/1,2,10;
 10/6=1,60=-420/2;
 6/7=2,8=2,9=2,10=2,28=1/1;
 7/8=1,10=1,25=1/1,2,3,16;
 1/10=4,30=1/3;
 99//99;
 Structure from the checkpoint file:  "hoono.chk"
 ---------------------------------
 peroxynitrous acid, B3LYP/pcseg-2
 ---------------------------------
 Charge =  0 Multiplicity = 1
 Redundant internal coordinates found in file.  (old form).
 O,0,-0.603144,-1.167815,0.
 N,0,-0.992753,-0.05172,0.
 O,0,0.,0.906366,0.
 O,0,1.327571,0.379949,0.
 H,0,1.153859,-0.585958,0.
 Recover connectivity data from disk.

 GradGradGradGradGradGradGradGradGradGradGradGradGradGradGradGradGradGrad
 Berny optimization.
 Initialization pass.
                           ----------------------------
                           !    Initial Parameters    !
                           ! (Angstroms and Degrees)  !
 --------------------------                            --------------------------
 ! Name  Definition              Value          Derivative Info.                !
 --------------------------------------------------------------------------------
 ! R1    R(1,2)                  1.1821         calculate D2E/DX2 analytically  !
 ! R2    R(2,3)                  1.3797         calculate D2E/DX2 analytically  !
 ! R3    R(3,4)                  1.4281         calculate D2E/DX2 analytically  !
 ! R4    R(4,5)                  0.9814         calculate D2E/DX2 analytically  !
 ! A1    A(1,2,3)              114.7388         calculate D2E/DX2 analytically  !
 ! A2    A(2,3,4)              114.3884         calculate D2E/DX2 analytically  !
 ! A3    A(3,4,5)              101.4344         calculate D2E/DX2 analytically  !
 ! D1    D(1,2,3,4)              0.0            calculate D2E/DX2 analytically  !
 ! D2    D(2,3,4,5)              0.0            calculate D2E/DX2 analytically  !
 --------------------------------------------------------------------------------
 Trust Radius=3.00D-01 FncErr=1.00D-07 GrdErr=1.00D-07 EigMax=2.50D+02 EigMin=1.00D-04
 Number of steps in this run=      2 maximum allowed number of steps=      2.
 GradGradGradGradGradGradGradGradGradGradGradGradGradGradGradGradGradGrad

                          Input orientation:                          
 ---------------------------------------------------------------------
 Center     Atomic      Atomic             Coordinates (Angstroms)
 Number     Number       Type             X           Y           Z
 ---------------------------------------------------------------------
      1          8           0       -0.603144   -1.167815    0.000000
      2          7           0       -0.992753   -0.051720    0.000000
      3          8           0        0.000000    0.906366    0.000000
      4          8           0        1.327571    0.379949    0.000000
      5          1           0        1.153859   -0.585958    0.000000
 ---------------------------------------------------------------------
                    Distance matrix (angstroms):
                    1          2          3          4          5
     1  O    0.000000
     2  N    1.182143   0.000000
     3  O    2.160095   1.379669   0.000000
     4  O    2.474517   2.360136   1.428132   0.000000
     5  H    1.850842   2.212093   1.886378   0.981403   0.000000
 Stoichiometry    HNO3
 Framework group  CS[SG(HNO3)]
 Deg. of freedom     7
 Full point group                 CS      NOp   2
 Largest Abelian subgroup         CS      NOp   2
 Largest concise Abelian subgroup C1      NOp   1
                         Standard orientation:                         
 ---------------------------------------------------------------------
 Center     Atomic      Atomic             Coordinates (Angstroms)
 Number     Number       Type             X           Y           Z
 ---------------------------------------------------------------------
      1          8           0       -0.603144   -1.167815    0.000000
      2          7           0       -0.992753   -0.051720    0.000000
      3          8           0        0.000000    0.906366    0.000000
      4          8           0        1.327571    0.379949    0.000000
      5          1           0        1.153859   -0.585958    0.000000
 ---------------------------------------------------------------------
 Rotational constants (GHZ):          21.8120124           7.9460348           5.8242736
 Basis read from chk: "hoono.chk" (5D, 7F)
 There are   107 symmetry adapted cartesian basis functions of A'  symmetry.
 There are    48 symmetry adapted cartesian basis functions of A"  symmetry.
 There are    90 symmetry adapted basis functions of A'  symmetry.
 There are    44 symmetry adapted basis functions of A"  symmetry.
   134 basis functions,   222 primitive gaussians,   155 cartesian basis functions
    16 alpha electrons       16 beta electrons
       nuclear repulsion energy       122.7021884717 Hartrees.
 NAtoms=    5 NActive=    5 NUniq=    5 SFac= 1.00D+00 NAtFMM=   60 NAOKFM=F Big=F
 Integral buffers will be    131072 words long.
 Raffenetti 2 integral format.
 Two-electron integral symmetry is turned on.
 One-electron integrals computed using PRISM.
 NBasis=   134 RedAO= T EigKep=  1.00D-03  NBF=    90    44
 NBsUse=   134 1.00D-06 EigRej= -1.00D+00 NBFU=    90    44
 Initial guess from the checkpoint file:  "hoono.chk"
 B after Tr=    -0.000000    0.000000   -0.000000
         Rot=    1.000000    0.000000    0.000000    0.000000 Ang=   0.00 deg.
 Initial guess orbital symmetries:
       Occupied  (A') (A') (A') (A') (A') (A') (A') (A') (A') (A")
                 (A') (A') (A') (A") (A') (A")
       Virtual   (A") (A') (A') (A') (A') (A') (A") (A') (A') (A')
                 (A') (A") (A") (A') (A') (A') (A") (A') (A') (A')
                 (A') (A') (A") (A') (A") (A') (A") (A') (A") (A')
                 (A') (A') (A") (A') (A") (A') (A') (A") (A') (A')
                 (A') (A") (A') (A") (A') (A") (A') (A") (A') (A')
                 (A") (A') (A") (A') (A') (A') (A') (A') (A") (A')
                 (A") (A') (A") (A') (A') (A") (A") (A") (A') (A')
                 (A') (A") (A') (A') (A') (A") (A') (A') (A") (A')
                 (A') (A') (A") (A") (A') (A') (A') (A") (A") (A")
                 (A') (A") (A') (A') (A") (A') (A") (A') (A") (A")
                 (A') (A') (A") (A') (A") (A') (A") (A') (A') (A")
                 (A') (A') (A') (A') (A') (A') (A') (A')
 Keep R1 ints in memory in symmetry-blocked form, NReq=61705485.
 Requested convergence on RMS density matrix=1.00D-08 within 128 cycles.
 Requested convergence on MAX density matrix=1.00D-06.
 Requested convergence on             energy=1.00D-06.
 No special actions if energy rises.
 SCF Done:  E(RB3LYP) =  -280.961578068     A.U. after    1 cycles
            NFock=  1  Conv=0.45D-08     -V/T= 2.0028
 DoSCS=F DFT=T ScalE2(SS,OS)=  1.000000  1.000000
 Range of M.O.s used for correlation:     1   134
 NBasis=   134 NAE=    16 NBE=    16 NFC=     0 NFV=     0
 NROrb=    134 NOA=    16 NOB=    16 NVA=   118 NVB=   118

 **** Warning!!: The largest alpha MO coefficient is  0.11678685D+02

 Symmetrizing basis deriv contribution to polar:
 IMax=3 JMax=2 DiffMx= 0.00D+00
 G2DrvN: will do     6 centers at a time, making    1 passes.
 Calling FoFCou, ICntrl=  3107 FMM=F I1Cent=   0 AccDes= 0.00D+00.
 End of G2Drv F.D. properties file   721 does not exist.
 End of G2Drv F.D. properties file   722 does not exist.
 End of G2Drv F.D. properties file   788 does not exist.
          IDoAtm=11111
          Differentiating once with respect to electric field.
                with respect to dipole field.
          Differentiating once with respect to nuclear coordinates.
 Keep R1 ints in memory in symmetry-blocked form, NReq=61708763.
          There are    18 degrees of freedom in the 1st order CPHF.  IDoFFX=6 NUNeed=     3.
     15 vectors produced by pass  0 Test12= 1.05D-14 5.56D-09 XBig12= 3.20D+01 3.49D+00.
 AX will form    15 AO Fock derivatives at one time.
     15 vectors produced by pass  1 Test12= 1.05D-14 5.56D-09 XBig12= 2.62D+01 1.17D+00.
     15 vectors produced by pass  2 Test12= 1.05D-14 5.56D-09 XBig12= 5.16D-01 1.71D-01.
     15 vectors produced by pass  3 Test12= 1.05D-14 5.56D-09 XBig12= 7.99D-03 1.68D-02.
     15 vectors produced by pass  4 Test12= 1.05D-14 5.56D-09 XBig12= 4.94D-05 1.86D-03.
     15 vectors produced by pass  5 Test12= 1.05D-14 5.56D-09 XBig12= 1.08D-07 6.85D-05.
      9 vectors produced by pass  6 Test12= 1.05D-14 5.56D-09 XBig12= 2.44D-10 3.53D-06.
      3 vectors produced by pass  7 Test12= 1.05D-14 5.56D-09 XBig12= 2.96D-13 8.85D-08.
 InvSVY:  IOpt=1 It=  1 EMax= 6.66D-16
 Solved reduced A of dimension   102 with    15 vectors.
 Isotropic polarizability for W=    0.000000       24.07 Bohr**3.
 End of Minotr F.D. properties file   721 does not exist.
 End of Minotr F.D. properties file   722 does not exist.
 End of Minotr F.D. properties file   788 does not exist.

 **********************************************************************

            Population analysis using the SCF Density.

 **********************************************************************

 Orbital symmetries:
       Occupied  (A') (A') (A') (A') (A') (A') (A') (A') (A') (A")
                 (A') (A') (A') (A") (A') (A")
       Virtual   (A") (A') (A') (A') (A') (A') (A") (A') (A') (A')
                 (A') (A") (A") (A') (A') (A') (A") (A') (A') (A')
                 (A') (A') (A") (A') (A") (A') (A") (A') (A") (A')
                 (A') (A') (A") (A') (A") (A') (A') (A") (A') (A')
                 (A') (A") (A') (A") (A') (A") (A') (A") (A') (A')
                 (A") (A') (A") (A') (A') (A') (A') (A') (A") (A')
                 (A") (A') (A") (A') (A') (A") (A") (A") (A') (A')
                 (A') (A") (A') (A') (A') (A") (A') (A') (A") (A')
                 (A') (A') (A") (A") (A') (A') (A') (A") (A") (A")
                 (A') (A") (A') (A') (A") (A') (A") (A') (A") (A")
                 (A') (A') (A") (A') (A") (A') (A") (A') (A') (A")
                 (A') (A') (A') (A') (A') (A') (A') (A')
 The electronic state is 1-A'.
 Alpha  occ. eigenvalues --  -19.28588 -19.23760 -19.22998 -14.53048  -1.28169
 Alpha  occ. eigenvalues --   -1.16453  -0.98561  -0.71759  -0.62512  -0.55636
 Alpha  occ. eigenvalues --   -0.55453  -0.45729  -0.45078  -0.44673  -0.33378
 Alpha  occ. eigenvalues --   -0.32689
 Alpha virt. eigenvalues --   -0.11428  -0.03859   0.04051   0.10893   0.17689
 Alpha virt. eigenvalues --    0.20333   0.23057   0.24613   0.25523   0.29666
 Alpha virt. eigenvalues --    0.31836   0.33188   0.35961   0.39233   0.40604
 Alpha virt. eigenvalues --    0.43050   0.44659   0.49463   0.55488   0.60244
 Alpha virt. eigenvalues --    0.72904   0.75884   0.75976   0.89200   1.05083
 Alpha virt. eigenvalues --    1.07915   1.08998   1.23210   1.29060   1.36860
 Alpha virt. eigenvalues --    1.41350   1.43202   1.43386   1.60057   1.67100
 Alpha virt. eigenvalues --    1.67983   1.76467   1.76479   1.80804   1.83476
 Alpha virt. eigenvalues --    1.83975   1.84526   1.95023   1.98181   2.03069
 Alpha virt. eigenvalues --    2.05213   2.10881   2.23345   2.26388   2.29729
 Alpha virt. eigenvalues --    2.34798   2.42871   2.47917   2.56383   2.69380
 Alpha virt. eigenvalues --    2.72036   2.84626   3.04973   3.26736   3.36457
 Alpha virt. eigenvalues --    3.43062   3.44248   3.47436   3.50589   3.56483
 Alpha virt. eigenvalues --    3.60511   3.67817   3.76600   3.78043   3.79830
 Alpha virt. eigenvalues --    3.85361   3.94254   3.94793   3.99352   4.11788
 Alpha virt. eigenvalues --    4.12458   4.24430   4.26943   4.42885   4.44941
 Alpha virt. eigenvalues --    4.49131   4.54945   4.63649   4.67372   4.72620
 Alpha virt. eigenvalues --    4.83426   4.96500   5.04366   5.05223   5.14040
 Alpha virt. eigenvalues --    5.26461   5.33520   5.35113   5.55631   5.76756
 Alpha virt. eigenvalues --    5.81478   5.94852   6.00921   6.01080   6.03110
 Alpha virt. eigenvalues --    6.09888   6.14864   6.17658   6.21158   6.31314
 Alpha virt. eigenvalues --    6.39146   6.44016   6.46621   6.56682   6.61290
 Alpha virt. eigenvalues --    6.62027   6.79735   6.90662   7.04900   7.20569
 Alpha virt. eigenvalues --    7.44736   8.30676  10.19369
          Condensed to atoms (all electrons):
               1          2          3          4          5
     1  O    8.017741   0.304764  -0.094026  -0.018005   0.045531
     2  N    0.304764   6.401973   0.061393  -0.007466  -0.008628
     3  O   -0.094026   0.061393   8.058710   0.021101  -0.024450
     4  O   -0.018005  -0.007466   0.021101   7.865009   0.317206
     5  H    0.045531  -0.008628  -0.024450   0.317206   0.461727
 Mulliken charges:
               1
     1  O   -0.256005
     2  N    0.247964
     3  O   -0.022728
     4  O   -0.177845
     5  H    0.208614
 Sum of Mulliken charges =   0.00000
 Mulliken charges with hydrogens summed into heavy atoms:
               1
     1  O   -0.256005
     2  N    0.247964
     3  O   -0.022728
     4  O    0.030769
 APT charges:
               1
     1  O   -0.389726
     2  N    0.621666
     3  O   -0.199295
     4  O   -0.303751
     5  H    0.271105
 Sum of APT charges =   0.00000
 APT charges with hydrogens summed into heavy atoms:
               1
     1  O   -0.389726
     2  N    0.621666
     3  O   -0.199295
     4  O   -0.032646
 Electronic spatial extent (au):  <R**2>=            208.4950
 Charge=              0.0000 electrons
 Dipole moment (field-independent basis, Debye):
    X=              0.2082    Y=             -0.9560    Z=              0.0000  Tot=              0.9784
 Quadrupole moment (field-independent basis, Debye-Ang):
   XX=            -23.0966   YY=            -23.3125   ZZ=            -21.5329
   XY=             -2.2511   XZ=              0.0000   YZ=              0.0000
 Traceless Quadrupole moment (field-independent basis, Debye-Ang):
   XX=             -0.4493   YY=             -0.6652   ZZ=              1.1145
   XY=             -2.2511   XZ=              0.0000   YZ=              0.0000
 Octapole moment (field-independent basis, Debye-Ang**2):
  XXX=              2.6497  YYY=              0.9505  ZZZ=              0.0000  XYY=              2.5187
  XXY=             -3.0157  XXZ=              0.0000  XZZ=             -0.4449  YZZ=             -0.5648
  YYZ=              0.0000  XYZ=              0.0000
 Hexadecapole moment (field-independent basis, Debye-Ang**3):
 XXXX=           -127.9042 YYYY=            -95.6098 ZZZZ=            -17.2704 XXXY=            -22.9688
 XXXZ=              0.0000 YYYX=            -20.9964 YYYZ=              0.0000 ZZZX=              0.0000
 ZZZY=              0.0000 XXYY=            -35.8676 XXZZ=            -24.2088 YYZZ=            -18.4627
 XXYZ=              0.0000 YYXZ=              0.0000 ZZXY=             -6.3618
 N-N= 1.227021884717D+02 E-N=-9.080487237324D+02  KE= 2.801794462859D+02
 Symmetry A'   KE= 2.662036460290D+02
 Symmetry A"   KE= 1.397580025686D+01
  Exact polarizability:  30.405   4.214  27.688   0.000   0.000  14.124
 Approx polarizability:  50.487   9.677  54.848  -0.000  -0.000  19.379
 Calling FoFJK, ICntrl=    100127 FMM=F ISym2X=1 I1Cent= 0 IOpClX= 0 NMat=1 NMatS=1 NMatT=0.
 Full mass-weighted force constant matrix:
 Low frequencies ---  -15.5084   -7.8034   -0.0017   -0.0014   -0.0005    7.2435
 Low frequencies ---  363.9276  369.7264  509.6879
 Diagonal vibrational polarizability:
        5.3932778       8.6828347      17.9464261
 Harmonic frequencies (cm**-1), IR intensities (KM/Mole), Raman scattering
 activities (A**4/AMU), depolarization ratios for plane and unpolarized
 incident light, reduced masses (AMU), force constants (mDyne/A),
 and normal coordinates:
                      1                      2                      3
                     A"                     A'                     A"
 Frequencies --    363.9269               369.7264               509.6879
 Red. masses --      1.5492                 6.8114                 2.9645
 Frc consts  --      0.1209                 0.5486                 0.4537
 IR Inten    --     71.5854                 7.4315                32.8299
  Atom  AN      X      Y      Z        X      Y      Z        X      Y      Z
     1   8    -0.00  -0.00   0.03     0.38   0.16   0.00     0.00   0.00  -0.17
     2   7    -0.00  -0.00  -0.11     0.04   0.07  -0.00     0.00   0.00   0.27
     3   8     0.00  -0.00   0.12    -0.05   0.11   0.00    -0.00   0.00  -0.19
     4   8     0.00   0.00  -0.11    -0.31  -0.31  -0.00    -0.00  -0.00   0.05
     5   1     0.00   0.00   0.98    -0.74  -0.26   0.00    -0.00  -0.00   0.93
                      4                      5                      6
                     A'                     A'                     A'
 Frequencies --    666.4204               840.2987               963.2576
 Red. masses --     13.5767                13.2757                 8.6699
 Frc consts  --      3.5526                 5.5230                 4.7397
 IR Inten    --    109.6504                66.6384                13.1559
  Atom  AN      X      Y      Z        X      Y      Z        X      Y      Z
     1   8    -0.03  -0.13  -0.00     0.21   0.24  -0.00    -0.14  -0.28  -0.00
     2   7    -0.39  -0.43   0.00    -0.52  -0.14  -0.00     0.33  -0.01   0.00
     3   8     0.52   0.49  -0.00    -0.32   0.11   0.00    -0.27   0.44  -0.00
     4   8    -0.13   0.02   0.00     0.55  -0.21  -0.00     0.17  -0.15   0.00
     5   1    -0.34   0.05   0.00     0.35  -0.15   0.00    -0.69  -0.01  -0.00
                      7                      8                      9
                     A'                     A'                     A'
 Frequencies --   1443.2134              1659.9053              3512.9244
 Red. masses --      1.2354                 9.9092                 1.0643
 Frc consts  --      1.5161                16.0863                 7.7382
 IR Inten    --     72.3208               207.1392                41.2541
  Atom  AN      X      Y      Z        X      Y      Z        X      Y      Z
     1   8    -0.01   0.02  -0.00     0.19  -0.49  -0.00     0.00  -0.00  -0.00
     2   7     0.05  -0.03  -0.00    -0.31   0.52  -0.00    -0.00   0.00   0.00
     3   8    -0.02   0.07   0.00     0.05   0.05   0.00     0.00  -0.00  -0.00
     4   8    -0.06  -0.05  -0.00    -0.01  -0.01  -0.00    -0.01  -0.06   0.00
     5   1     0.98  -0.18   0.00     0.58  -0.13   0.00     0.13   0.99   0.00

 -------------------
 - Thermochemistry -
 -------------------
 Temperature   298.150 Kelvin.  Pressure   1.00000 Atm.
 Atom     1 has atomic number  8 and mass  15.99491
 Atom     2 has atomic number  7 and mass  14.00307
 Atom     3 has atomic number  8 and mass  15.99491
 Atom     4 has atomic number  8 and mass  15.99491
 Atom     5 has atomic number  1 and mass   1.00783
 Molecular mass:    62.99564 amu.
 Principal axes and moments of inertia in atomic units:
                           1         2         3
     Eigenvalues --    82.74070 227.12476 309.86546
           X            0.80130  -0.59826   0.00000
           Y            0.59826   0.80130   0.00000
           Z            0.00000   0.00000   1.00000
 This molecule is an asymmetric top.
 Rotational symmetry number  1.
 Rotational temperatures (Kelvin)      1.04681     0.38135     0.27952
 Rotational constants (GHZ):          21.81201     7.94603     5.82427
 Zero-point vibrational energy      61783.3 (Joules/Mol)
                                   14.76656 (Kcal/Mol)
 Warning -- explicit consideration of   3 degrees of freedom as
           vibrations may cause significant error
 Vibrational temperatures:    523.61   531.95   733.33   958.83  1209.00
          (Kelvin)           1385.91  2076.46  2388.23  5054.31
 
 Zero-point correction=                           0.023532 (Hartree/Particle)
 Thermal correction to Energy=                    0.027513
 Thermal correction to Enthalpy=                  0.028458
 Thermal correction to Gibbs Free Energy=        -0.002472
 Sum of electronic and zero-point Energies=           -280.938046
 Sum of electronic and thermal Energies=              -280.934065
 Sum of electronic and thermal Enthalpies=            -280.933121
 Sum of electronic and thermal Free Energies=         -280.964050
 
                     E (Thermal)             CV                S
                      KCal/Mol        Cal/Mol-Kelvin    Cal/Mol-Kelvin
 Total                   17.265             12.305             65.096
 Electronic               0.000              0.000              0.000
 Translational            0.889              2.981             38.341
 Rotational               0.889              2.981             23.281
 Vibrational             15.487              6.344              3.475
 Vibration     1          0.737              1.547              1.105
 Vibration     2          0.742              1.534              1.081
 Vibration     3          0.865              1.229              0.634
                       Q            Log10(Q)             Ln(Q)
 Total Bot       0.137079D+02          1.136970          2.617970
 Total V=0       0.913979D+12         11.960936         27.541074
 Vib (Bot)       0.255344D-10        -10.592874        -24.390993
 Vib (Bot)    1  0.502325D+00         -0.299016         -0.688509
 Vib (Bot)    2  0.492507D+00         -0.307588         -0.708247
 Vib (Bot)    3  0.319675D+00         -0.495292         -1.140451
 Vib (V=0)       0.170252D+01          0.231093          0.532110
 Vib (V=0)    1  0.120875D+01          0.082337          0.189589
 Vib (V=0)    2  0.120183D+01          0.079842          0.183844
 Vib (V=0)    3  0.109346D+01          0.038802          0.089345
 Electronic      0.100000D+01          0.000000          0.000000
 Translational   0.196526D+08          7.293420         16.793719
 Rotational      0.273164D+05          4.436424         10.215244
 ***** Axes restored to original set *****
 -------------------------------------------------------------------
 Center     Atomic                   Forces (Hartrees/Bohr)
 Number     Number              X              Y              Z
 -------------------------------------------------------------------
      1        8           0.000001967   -0.000240928   -0.000000000
      2        7          -0.000075781    0.000005808   -0.000000000
      3        8           0.000227968    0.000261989   -0.000000000
      4        8          -0.000183925    0.000073316   -0.000000000
      5        1           0.000029773   -0.000100186   -0.000000000
 -------------------------------------------------------------------
 Cartesian Forces:  Max     0.000261989 RMS     0.000125050
 FormGI is forming the generalized inverse of G from B-inverse, IUseBI=4.

 GradGradGradGradGradGradGradGradGradGradGradGradGradGradGradGradGradGrad
 Berny optimization.
 Internal  Forces:  Max     0.000228057 RMS     0.000141767
 Search for a local minimum.
 Step number   1 out of a maximum of    2
 All quantities printed in internal units (Hartrees-Bohrs-Radians)
 Second derivative matrix not updated -- analytic derivatives used.
 The second derivative matrix:
                          R1        R2        R3        R4        A1
           R1           0.80849
           R2           0.15270   0.19719
           R3           0.02451   0.04114   0.25058
           R4          -0.01477   0.00401   0.02292   0.44308
           A1           0.11583   0.11980  -0.07478   0.01104   0.63208
           A2           0.01763   0.07752   0.00874   0.01324   0.02177
           A3           0.02408  -0.02145   0.05364   0.04162  -0.02499
           D1           0.00000   0.00000   0.00000  -0.00000   0.00000
           D2          -0.00000  -0.00000   0.00000   0.00000  -0.00000
                          A2        A3        D1        D2
           A2           0.46683
           A3          -0.02144   0.24583
           D1           0.00000   0.00000   0.09959
           D2          -0.00000   0.00000   0.02554   0.02014
 ITU=  0
     Eigenvalues ---    0.01264   0.10477   0.10710   0.21017   0.27127
     Eigenvalues ---    0.45199   0.48294   0.60197   0.92095
 Angle between quadratic step and forces=  46.31 degrees.
 Linear search not attempted -- first point.
 Iteration  1 RMS(Cart)=  0.00047936 RMS(Int)=  0.00000011
 Iteration  2 RMS(Cart)=  0.00000012 RMS(Int)=  0.00000000
 ClnCor:  largest displacement from symmetrization is 9.75D-11 for atom     3.
 Variable       Old X    -DE/DX   Delta X   Delta X   Delta X     New X
                                 (Linear)    (Quad)   (Total)
    R1        2.23393   0.00023   0.00000   0.00002   0.00002   2.23395
    R2        2.60720   0.00022   0.00000   0.00161   0.00161   2.60881
    R3        2.69878  -0.00013   0.00000  -0.00096  -0.00096   2.69781
    R4        1.85458   0.00009   0.00000   0.00021   0.00021   1.85479
    A1        2.00257   0.00017   0.00000  -0.00011  -0.00011   2.00246
    A2        1.99645  -0.00013   0.00000  -0.00051  -0.00051   1.99594
    A3        1.77036   0.00009   0.00000   0.00061   0.00061   1.77098
    D1        0.00000   0.00000   0.00000  -0.00000   0.00000   0.00000
    D2        0.00000  -0.00000   0.00000   0.00000   0.00000   0.00000
         Item               Value     Threshold  Converged?
 Maximum Force            0.000228     0.000450     YES
 RMS     Force            0.000142     0.000300     YES
 Maximum Displacement     0.000829     0.001800     YES
 RMS     Displacement     0.000479     0.001200     YES
 Predicted change in Energy=-3.020176D-07
 Optimization completed.
    -- Stationary point found.
                           ----------------------------
                           !   Optimized Parameters   !
                           ! (Angstroms and Degrees)  !
 --------------------------                            --------------------------
 ! Name  Definition              Value          Derivative Info.                !
 --------------------------------------------------------------------------------
 ! R1    R(1,2)                  1.1821         -DE/DX =    0.0002              !
 ! R2    R(2,3)                  1.3797         -DE/DX =    0.0002              !
 ! R3    R(3,4)                  1.4281         -DE/DX =   -0.0001              !
 ! R4    R(4,5)                  0.9814         -DE/DX =    0.0001              !
 ! A1    A(1,2,3)              114.7388         -DE/DX =    0.0002              !
 ! A2    A(2,3,4)              114.3884         -DE/DX =   -0.0001              !
 ! A3    A(3,4,5)              101.4344         -DE/DX =    0.0001              !
 ! D1    D(1,2,3,4)              0.0            -DE/DX =    0.0                 !
 ! D2    D(2,3,4,5)              0.0            -DE/DX =    0.0                 !
 --------------------------------------------------------------------------------
 GradGradGradGradGradGradGradGradGradGradGradGradGradGradGradGradGradGrad


 ----------------------------------------------------------------------

 Electric dipole moment (input orientation):
 (Debye = 10**-18 statcoulomb cm , SI units = C m)
                  (au)            (Debye)         (10**-30 SI)
   Tot        0.384926D+00      0.978384D+00      0.326354D+01
   x          0.819041D-01      0.208179D+00      0.694412D+00
   y         -0.376111D+00     -0.955980D+00     -0.318881D+01
   z          0.000000D+00      0.000000D+00      0.000000D+00

 Dipole polarizability, Alpha (input orientation).
 (esu units = cm**3 , SI units = C**2 m**2 J**-1)
 Alpha(0;0):
               (au)            (10**-24 esu)      (10**-40 SI)
   iso        0.240723D+02      0.356714D+01      0.396898D+01
   aniso      0.167782D+02      0.248628D+01      0.276636D+01
   xx         0.304048D+02      0.450553D+01      0.501308D+01
   yx         0.421441D+01      0.624511D+00      0.694862D+00
   yy         0.276883D+02      0.410298D+01      0.456518D+01
   zx         0.000000D+00      0.000000D+00      0.000000D+00
   zy         0.000000D+00      0.000000D+00      0.000000D+00
   zz         0.141237D+02      0.209292D+01      0.232869D+01

 ----------------------------------------------------------------------

 Dipole orientation:
     8         -1.54699181         -0.33688153          1.91379412
     7         -1.81141436         -0.39446365         -0.30368120
     8          0.35609841          0.07754597         -1.67356144
     8          2.54443919          0.55409121         -0.16774974
     1          1.85154214          0.40320210          1.54590281

 Electric dipole moment (dipole orientation):
 (Debye = 10**-18 statcoulomb cm , SI units = C m)
                  (au)            (Debye)         (10**-30 SI)
   Tot        0.384926D+00      0.978384D+00      0.326354D+01
   x          0.000000D+00      0.000000D+00      0.000000D+00
   y          0.000000D+00      0.000000D+00      0.000000D+00
   z          0.384926D+00      0.978384D+00      0.326354D+01

 Dipole polarizability, Alpha (dipole orientation).
 (esu units = cm**3 , SI units = C**2 m**2 J**-1)
 Alpha(0;0):
               (au)            (10**-24 esu)      (10**-40 SI)
   iso        0.240723D+02      0.356714D+01      0.396898D+01
   aniso      0.167782D+02      0.248628D+01      0.276636D+01
   xx         0.312234D+02      0.462682D+01      0.514804D+01
   yx         0.372371D+01      0.551797D+00      0.613956D+00
   yy         0.149346D+02      0.221308D+01      0.246239D+01
   zx        -0.319316D+01     -0.473178D+00     -0.526481D+00
   zy        -0.695361D+00     -0.103042D+00     -0.114650D+00
   zz         0.260588D+02      0.386152D+01      0.429652D+01

 ----------------------------------------------------------------------
 1\1\GINC-GAMBA\Freq\RB3LYP\Gen\H1N1O3\IRIKURA\29-Sep-2023\0\\#N Geom=A
 llCheck Guess=TCheck SCRF=Check GenChk RB3LYP/ChkBas Freq\\peroxynitro
 us acid, B3LYP/pcseg-2\\0,1\O,-0.603144,-1.167815,0.\N,-0.992753,-0.05
 172,0.\O,0.,0.906366,0.\O,1.327571,0.379949,0.\H,1.153859,-0.585958,0.
 \\Version=ES64L-G16RevB.01\State=1-A'\HF=-280.9615781\RMSD=4.483e-09\R
 MSF=1.250e-04\ZeroPoint=0.023532\Thermal=0.0275134\Dipole=0.0819041,-0
 .3761114,0.\DipoleDeriv=0.000122,0.3781309,0.,-0.5710099,-1.0785532,0.
 ,0.,0.,-0.090746,0.2635921,0.2723591,0.,0.8223927,1.559259,0.,0.,0.,0.
 0421484,0.0052268,-0.3631527,0.,-0.4611512,-0.5864325,0.,0.,0.,-0.0166
 779,-0.5529312,-0.2274518,0.,0.2503742,-0.100048,0.,0.,0.,-0.2582747,0
 .2839903,-0.0598854,0.,-0.0406057,0.2057747,0.,0.,0.,0.3235503\Polar=3
 0.4048382,4.214407,27.6882538,0.,0.,14.1237363\Quadrupole=-0.334036,-0
 .4945375,0.8285734,-1.6736396,0.,0.\PG=CS [SG(H1N1O3)]\NImag=0\\0.1683
 4651,-0.17158764,0.76671207,0.,0.,0.02410658,-0.22820442,0.23936120,0.
 ,0.44874283,0.23404808,-0.60388095,0.,-0.28025164,0.63274110,0.,0.,-0.
 03605081,0.,0.,0.05618252,0.02596189,-0.05640876,0.,-0.11265645,0.0327
 0781,0.,0.23191858,-0.04030231,-0.16700430,0.,0.06465262,-0.04501339,0
 .,-0.08466303,0.36750144,0.,0.,0.02885690,0.,0.,-0.04674126,0.,0.,0.04
 025190,0.02239149,0.00092289,0.,-0.10468008,-0.00760506,0.,-0.13291568
 ,0.01300161,0.,0.28643666,-0.02978048,0.01448359,0.,-0.01817338,0.0052
 1792,0.,0.09196853,-0.12624672,0.,0.05579556,0.51719784,0.,0.,-0.00998
 769,0.,0.,0.01942305,0.,0.,-0.01909774,0.,0.,0.01270688,0.01150453,-0.
 01228769,0.,-0.00320188,0.02110082,0.,-0.01230834,0.04731110,0.,-0.071
 23238,-0.09981024,0.,0.07523807,0.00762236,-0.01031041,0.,-0.00558881,
 0.01093532,0.,0.01639545,-0.02923702,0.,-0.06211500,-0.41065263,0.,0.0
 4368601,0.43926474,0.,0.,-0.00692498,0.,0.,0.00718649,0.,0.,-0.0032698
 1,0.,0.,-0.00304449,0.,0.,0.00605278\\-0.00000197,0.00024093,0.,0.0000
 7578,-0.00000581,0.,-0.00022797,-0.00026199,0.,0.00018393,-0.00007332,
 0.,-0.00002977,0.00010019,0.\\\@


 A BIRD IN THE HAND IS SAFER THAN ONE OVERHEAD.

                       -- NEWTON'S SEVENTH LAW
 Job cpu time:       0 days  0 hours  4 minutes 16.1 seconds.
 Elapsed time:       0 days  0 hours  1 minutes  4.1 seconds.
 File lengths (MBytes):  RWF=     15 Int=      0 D2E=      0 Chk=      2 Scr=      1
 Normal termination of Gaussian 16 at Fri Sep 29 13:50:56 2023.
 AtFile(1): ccpvtz-f12.gbs
            -H     0
            S    3   1.00
                 82.6400000              0.0020060
                 12.4100000              0.0153430
                  2.8240000              0.0755790
            S    1   1.00
                  0.7977000              1.0000000
            S    1   1.00
                  0.2581000              1.0000000
            S    1   1.00
                  0.0898900              1.0000000
            P    1   1.00
                  1.5513000              1.0000000
            P    1   1.00
                  0.5580000              1.0000000
            P    1   1.00
                  0.2007000              1.0000000
            D    1   1.00
                  0.4648000              1.0000000
            ****
            -He     0
            S    4   1.00
                528.5000000              0.0009400
                 79.3100000              0.0072140
                 18.0500000              0.0359750
                  5.0850000              0.1277820
            S    1   1.00
                  1.6090000              1.0000000
            S    1   1.00
                  0.5363000              1.0000000
            S    1   1.00
                  0.1833000              1.0000000
            S    1   1.00
                  0.0481900              1.0000000
            P    1   1.00
                  3.7026000              1.0000000
            P    1   1.00
                  1.2284000              1.0000000
            P    1   1.00
                  0.4075000              1.0000000
            D    1   1.00
                  0.6525000              1.0000000
            ****
            -Li     0
            S    9   1.00
               6601.0000000              0.0001170
                989.7000000              0.0009110
                225.7000000              0.0047280
                 64.2900000              0.0191970
                 21.1800000              0.0630470
                  7.7240000              0.1632080
                  3.0030000              0.3148270
                  1.2120000              0.3939360
                  0.4930000              0.1969180
            S    9   1.00
               6601.0000000             -0.0000180
                989.7000000             -0.0001420
                225.7000000             -0.0007410
                 64.2900000             -0.0030200
                 21.1800000             -0.0101230
                  7.7240000             -0.0270940
                  3.0030000             -0.0573590
                  1.2120000             -0.0938950
                  0.4930000             -0.1210910
            S    1   1.00
                  0.0951500              1.0000000
            S    1   1.00
                  0.0479100              1.0000000
            S    1   1.00
                  0.0222000              1.0000000
            S    1   1.00
                  0.0064000              1.0000000
            P    2   1.00
                  6.2500000              0.0033880
                  1.3700000              0.0193160
            P    1   1.00
                  0.3672000              1.0000000
            P    1   1.00
                  0.1192000              1.0000000
            P    1   1.00
                  0.0447400              1.0000000
            P    1   1.00
                  0.0179500              1.0000000
            P    1   1.00
                  0.0075000              1.0000000
            D    1   1.00
                  0.2351180              1.0000000
            D    1   1.00
                  0.1194040              1.0000000
            D    1   1.00
                  0.0606390              1.0000000
            F    1   1.00
                  0.1637750              1.0000000
            F    1   1.00
                  0.0759100              1.0000000
            ****
            -Be     0
            S    9   1.00
              14630.0000000              0.0000920
               2191.0000000              0.0007130
                498.2000000              0.0037350
                140.9000000              0.0154680
                 45.8600000              0.0528740
                 16.4700000              0.1456940
                  6.3190000              0.3026810
                  2.5350000              0.4049360
                  1.0350000              0.2223870
            S    9   1.00
              14630.0000000             -0.0000170
               2191.0000000             -0.0001300
                498.2000000             -0.0006790
                140.9000000             -0.0028570
                 45.8600000             -0.0098130
                 16.4700000             -0.0286090
                  6.3190000             -0.0637600
                  2.5350000             -0.1172310
                  1.0350000             -0.1212020
            S    1   1.00
                  0.2528000              1.0000000
            S    1   1.00
                  0.1052000              1.0000000
            S    1   1.00
                  0.0426100              1.0000000
            S    1   1.00
                  0.0141000              1.0000000
            P    2   1.00
                 14.0300000              0.0040990
                  3.1680000              0.0256260
            P    1   1.00
                  0.9024000              1.0000000
            P    1   1.00
                  0.3036000              1.0000000
            P    1   1.00
[...]
 ---------------------------------
 # rohf/gen geom=check guess=check
 ---------------------------------
 1/29=2,38=1,172=1/1;
 2/12=2,40=1/2;
 3/5=7,11=2,14=-4,25=1,30=1,116=101/1,2,3;
 4/5=1/1;
 5/5=2,38=6/2;
 6/7=2,8=2,9=2,10=2,28=1/1;
 99/5=1,9=1/99;
 ------------------------------------
 peroxynitrous acid, ROHF/cc-pVTZ-F12
 ------------------------------------
 Structure from the checkpoint file:  "hoono.chk"
 Charge =  0 Multiplicity = 1
 Redundant internal coordinates found in file.  (old form).
 O,0,-0.603144,-1.167815,0.
 N,0,-0.992753,-0.05172,0.
 O,0,0.,0.906366,0.
 O,0,1.327571,0.379949,0.
 H,0,1.153859,-0.585958,0.
 Recover connectivity data from disk.
                           ----------------------------
                           !    Current Parameters    !
                           ! (Angstroms and Degrees)  !
 --------------------------                            --------------------------
 ! Name  Definition              Value                                          !
 --------------------------------------------------------------------------------
 ! R1    R(1,2)                  1.1821                                         !
 ! R2    R(2,3)                  1.3797                                         !
 ! R3    R(3,4)                  1.4281                                         !
 ! R4    R(4,5)                  0.9814                                         !
 ! A1    A(1,2,3)              114.7388                                         !
 ! A2    A(2,3,4)              114.3884                                         !
 ! A3    A(3,4,5)              101.4344                                         !
 ! D1    D(1,2,3,4)              0.0                                            !
 ! D2    D(2,3,4,5)              0.0                                            !
 --------------------------------------------------------------------------------
                          Input orientation:                          
 ---------------------------------------------------------------------
 Center     Atomic      Atomic             Coordinates (Angstroms)
 Number     Number       Type             X           Y           Z
 ---------------------------------------------------------------------
      1          8           0       -0.603144   -1.167815    0.000000
      2          7           0       -0.992753   -0.051720    0.000000
      3          8           0        0.000000    0.906366    0.000000
      4          8           0        1.327571    0.379949    0.000000
      5          1           0        1.153859   -0.585958    0.000000
 ---------------------------------------------------------------------
                    Distance matrix (angstroms):
                    1          2          3          4          5
     1  O    0.000000
     2  N    1.182143   0.000000
     3  O    2.160095   1.379669   0.000000
     4  O    2.474517   2.360136   1.428132   0.000000
     5  H    1.850842   2.212093   1.886378   0.981403   0.000000
 Stoichiometry    HNO3
 Framework group  CS[SG(HNO3)]
 Deg. of freedom     7
 Full point group                 CS      NOp   2
 Largest Abelian subgroup         CS      NOp   2
 Largest concise Abelian subgroup C1      NOp   1
                         Standard orientation:                         
 ---------------------------------------------------------------------
 Center     Atomic      Atomic             Coordinates (Angstroms)
 Number     Number       Type             X           Y           Z
 ---------------------------------------------------------------------
      1          8           0       -0.603144   -1.167815    0.000000
      2          7           0       -0.992753   -0.051720    0.000000
      3          8           0       -0.000000    0.906366    0.000000
      4          8           0        1.327571    0.379949    0.000000
      5          1           0        1.153859   -0.585958    0.000000
 ---------------------------------------------------------------------
 Rotational constants (GHZ):          21.8120124           7.9460348           5.8242736
 General basis read from cards:  (5D, 7F)
 There are   182 symmetry adapted cartesian basis functions of A'  symmetry.
 There are    85 symmetry adapted cartesian basis functions of A"  symmetry.
 There are   153 symmetry adapted basis functions of A'  symmetry.
 There are    77 symmetry adapted basis functions of A"  symmetry.
   230 basis functions,   333 primitive gaussians,   267 cartesian basis functions
    16 alpha electrons       16 beta electrons
       nuclear repulsion energy       122.7021884717 Hartrees.
 NAtoms=    5 NActive=    5 NUniq=    5 SFac= 1.00D+00 NAtFMM=   60 NAOKFM=F Big=F
 Integral buffers will be    131072 words long.
 Raffenetti 2 integral format.
 Two-electron integral symmetry is turned on.
 One-electron integrals computed using PRISM.
 NBasis=   230 RedAO= T EigKep=  2.27D-04  NBF=   153    77
 NBsUse=   230 1.00D-06 EigRej= -1.00D+00 NBFU=   153    77
 Initial guess from the checkpoint file:  "hoono.chk"
 B after Tr=    -0.000000   -0.000000   -0.000000
         Rot=    1.000000    0.000000    0.000000   -0.000000 Ang=   0.00 deg.
 Initial guess orbital symmetries:
       Occupied  (A') (A') (A') (A') (A') (A') (A') (A') (A') (A")
                 (A') (A') (A') (A") (A') (A")
       Virtual   (A") (A') (A') (A') (A') (A') (A") (A') (A') (A')
                 (A') (A") (A") (A') (A') (A') (A") (A') (A') (A')
                 (A') (A') (A") (A') (A") (A') (A") (A') (A") (A')
                 (A') (A') (A") (A') (A") (A') (A') (A") (A') (A')
                 (A') (A") (A') (A") (A') (A") (A') (A") (A') (A')
                 (A") (A') (A") (A') (A') (A') (A') (A') (A") (A')
                 (A") (A') (A") (A') (A') (A") (A") (A") (A') (A')
                 (A') (A") (A') (A') (A') (A") (A') (A') (A") (A')
                 (A') (A') (A") (A") (A') (A') (A') (A") (A") (A")
                 (A') (A") (A') (A') (A") (A') (A") (A') (A") (A")
                 (A') (A') (A") (A') (A") (A') (A") (A') (A') (A")
                 (A') (A') (A') (A') (A') (A') (A') (A') (A') (A')
                 (A') (A') (A') (A') (A') (A') (A') (A') (A') (A')
                 (A') (A') (A') (A') (A') (A') (A') (A') (A') (A')
                 (A') (A') (A') (A') (A') (A') (A') (A') (A') (A')
                 (A') (A') (A') (A') (A') (A') (A') (A') (A') (A')
                 (A') (A') (A') (A') (A') (A') (A') (A') (A') (A')
                 (A') (A') (A') (A') (A') (A') (A') (A') (A') (A')
                 (A') (A") (A") (A") (A") (A") (A") (A") (A") (A")
                 (A") (A") (A") (A") (A") (A") (A") (A") (A") (A")
                 (A") (A") (A") (A") (A") (A") (A") (A") (A") (A")
                 (A") (A") (A") (A")
 Requested convergence on RMS density matrix=1.00D-08 within 128 cycles.
 Requested convergence on MAX density matrix=1.00D-06.
 Requested convergence on             energy=1.00D-06.
 No special actions if energy rises.
 SCF Done:  E(ROHF) =  -279.525599508     A.U. after   14 cycles
            NFock= 14  Conv=0.40D-08     -V/T= 2.0016
 <Sx>= 0.0000 <Sy>= 0.0000 <Sz>= 0.0000 <S**2>=-0.0000 S=-0.0000
 <L.S>=  0.00000000000    
 Annihilation of the first spin contaminant:
 S**2 before annihilation    -0.0000,   after    -0.0000

 **********************************************************************

            Population analysis using the SCF Density.

 **********************************************************************

 Orbital symmetries:
       Occupied  (A') (A') (A') (A') (A') (A') (A') (A') (A') (A')
                 (A") (A') (A") (A') (A') (A")
       Virtual   (A') (A") (A') (A') (A") (A') (A') (A") (A') (A")
                 (A') (A') (A') (A") (A') (A') (A') (A') (A') (A')
                 (A") (A') (A') (A") (A') (A') (A') (A') (A') (A")
                 (A") (A') (A') (A") (A') (A') (A') (A") (A') (A")
                 (A') (A') (A') (A") (A') (A") (A') (A") (A') (A')
                 (A') (A") (A') (A") (A') (A") (A') (A') (A") (A')
                 (A') (A") (A') (A') (A') (A') (A') (A") (A') (A")
                 (A') (A") (A") (A') (A") (A') (A") (A') (A') (A")
                 (A") (A') (A') (A") (A') (A") (A') (A') (A") (A')
                 (A') (A") (A') (A') (A') (A') (A") (A") (A') (A')
                 (A") (A') (A") (A') (A') (A') (A") (A') (A") (A")
                 (A") (A') (A") (A') (A") (A') (A') (A") (A') (A")
                 (A') (A') (A') (A") (A') (A') (A') (A') (A') (A')
                 (A') (A") (A') (A') (A') (A") (A") (A") (A') (A')
                 (A') (A') (A') (A') (A') (A") (A") (A") (A") (A')
                 (A') (A') (A") (A") (A') (A') (A") (A') (A") (A")
                 (A') (A') (A') (A") (A') (A') (A') (A') (A') (A")
                 (A") (A") (A') (A") (A') (A') (A") (A') (A') (A')
                 (A') (A') (A") (A") (A') (A") (A') (A") (A') (A")
                 (A') (A") (A') (A') (A') (A') (A') (A') (A") (A')
                 (A') (A') (A") (A") (A") (A') (A') (A') (A') (A')
                 (A') (A') (A') (A')
 The electronic state is 1-A'.
 Alpha  occ. eigenvalues --  -20.71320 -20.68368 -20.66624 -15.82138  -1.64804
 Alpha  occ. eigenvalues --   -1.50704  -1.29336  -0.95804  -0.83389  -0.76080
 Alpha  occ. eigenvalues --   -0.74092  -0.64062  -0.62146  -0.61763  -0.50036
 Alpha  occ. eigenvalues --   -0.49710
 Alpha virt. eigenvalues --    0.06510   0.06517   0.09057   0.09571   0.10538
 Alpha virt. eigenvalues --    0.11672   0.14290   0.16254   0.16958   0.17240
 Alpha virt. eigenvalues --    0.19995   0.20824   0.22147   0.22498   0.25050
 Alpha virt. eigenvalues --    0.28597   0.32149   0.33335   0.35555   0.37398
 Alpha virt. eigenvalues --    0.49296   0.50248   0.53785   0.56939   0.56959
 Alpha virt. eigenvalues --    0.59941   0.65148   0.68216   0.68783   0.70899
 Alpha virt. eigenvalues --    0.71561   0.72629   0.76297   0.78294   0.78364
 Alpha virt. eigenvalues --    0.81394   0.83098   0.88300   0.91535   1.01174
 Alpha virt. eigenvalues --    1.07916   1.10042   1.16296   1.16919   1.18972
 Alpha virt. eigenvalues --    1.21828   1.29429   1.35888   1.43120   1.48339
 Alpha virt. eigenvalues --    1.50186   1.55221   1.56377   1.61887   1.64489
 Alpha virt. eigenvalues --    1.66534   1.67555   1.70138   1.72246   1.74785
 Alpha virt. eigenvalues --    1.76283   1.82607   1.85611   1.87891   1.89916
 Alpha virt. eigenvalues --    1.96733   2.01401   2.04278   2.06995   2.09012
 Alpha virt. eigenvalues --    2.10985   2.13907   2.20216   2.24859   2.28683
 Alpha virt. eigenvalues --    2.29471   2.36049   2.39786   2.41967   2.43437
 Alpha virt. eigenvalues --    2.50757   2.51602   2.54297   2.54499   2.58705
 Alpha virt. eigenvalues --    2.62650   2.64788   2.71163   2.77543   2.79375
 Alpha virt. eigenvalues --    2.86401   2.96855   3.00854   3.04678   3.09470
 Alpha virt. eigenvalues --    3.16139   3.22170   3.26749   3.28541   3.31927
 Alpha virt. eigenvalues --    3.34497   3.34905   3.48228   3.52883   3.62443
 Alpha virt. eigenvalues --    3.70244   3.73033   3.77785   3.80711   3.84145
 Alpha virt. eigenvalues --    3.84881   3.84939   3.91769   3.92374   3.94713
 Alpha virt. eigenvalues --    3.96822   3.98646   4.05182   4.09844   4.12379
 Alpha virt. eigenvalues --    4.17361   4.19911   4.20714   4.31803   4.32697
 Alpha virt. eigenvalues --    4.36262   4.40161   4.49173   4.66572   4.83951
 Alpha virt. eigenvalues --    5.09199   5.30533   5.40112   5.66857   5.85550
 Alpha virt. eigenvalues --    5.87093   5.92625   5.96931   5.99614   6.01704
 Alpha virt. eigenvalues --    6.11217   6.16467   6.30211   6.49603   6.60538
 Alpha virt. eigenvalues --    6.63280   6.89198   6.94053   6.95618   6.97310
 Alpha virt. eigenvalues --    6.97757   7.05573   7.08725   7.15458   7.18312
 Alpha virt. eigenvalues --    7.19521   7.26773   7.32561   7.37385   7.49635
 Alpha virt. eigenvalues --    7.51418   7.62144   7.83706   7.91520   7.96230
 Alpha virt. eigenvalues --    8.29724   8.38808   9.06997   9.17831   9.65874
 Alpha virt. eigenvalues --    9.88526  10.03920  10.09636  10.17353  10.33008
 Alpha virt. eigenvalues --   10.37209  10.40766  10.42431  10.50922  10.53628
 Alpha virt. eigenvalues --   10.63214  10.86890  10.96620  11.13555  11.21224
 Alpha virt. eigenvalues --   11.21439  11.32944  11.33955  11.39910  11.45381
 Alpha virt. eigenvalues --   11.52812  11.52996  11.70538  11.76655  11.98150
 Alpha virt. eigenvalues --   12.50396  13.03049  13.14456  29.27136  29.65368
 Alpha virt. eigenvalues --   30.38360  31.96425  37.29068  37.47354  37.56621
 Alpha virt. eigenvalues --   37.59020  37.79970  37.86053  37.88805  38.15441
 Alpha virt. eigenvalues --   38.24956  42.17042  42.96217  43.60810
          Condensed to atoms (all electrons):
               1          2          3          4          5
     1  O    7.943666   0.425242  -0.094260  -0.017895   0.033992
     2  N    0.425242   6.117238   0.143729   0.007435  -0.016404
     3  O   -0.094260   0.143729   7.985805   0.050384  -0.008425
     4  O   -0.017895   0.007435   0.050384   8.096456   0.238675
     5  H    0.033992  -0.016404  -0.008425   0.238675   0.331890
          Atomic-Atomic Spin Densities.
               1          2          3          4          5
     1  O   -0.000000  -0.000000   0.000000   0.000000  -0.000000
     2  N   -0.000000  -0.000000   0.000000   0.000000   0.000000
     3  O    0.000000   0.000000  -0.000000  -0.000000   0.000000
     4  O    0.000000   0.000000  -0.000000  -0.000000  -0.000000
     5  H   -0.000000   0.000000   0.000000  -0.000000  -0.000000
 Mulliken charges and spin densities:
               1          2
     1  O   -0.290745  -0.000000
     2  N    0.322761  -0.000000
     3  O   -0.077234  -0.000000
     4  O   -0.375054  -0.000000
     5  H    0.420272  -0.000000
 Sum of Mulliken charges =  -0.00000  -0.00000
 Mulliken charges and spin densities with hydrogens summed into heavy atoms:
               1          2
     1  O   -0.290745  -0.000000
     2  N    0.322761  -0.000000
     3  O   -0.077234  -0.000000
     4  O    0.045218  -0.000000
 Electronic spatial extent (au):  <R**2>=            207.9601
 Charge=             -0.0000 electrons
 Dipole moment (field-independent basis, Debye):
    X=             -0.0437    Y=             -1.1507    Z=              0.0000  Tot=              1.1515
 Quadrupole moment (field-independent basis, Debye-Ang):
   XX=            -22.6203   YY=            -23.2655   ZZ=            -21.3367
   XY=             -2.4403   XZ=              0.0000   YZ=              0.0000
 Traceless Quadrupole moment (field-independent basis, Debye-Ang):
   XX=             -0.2128   YY=             -0.8580   ZZ=              1.0708
   XY=             -2.4403   XZ=              0.0000   YZ=              0.0000
 Octapole moment (field-independent basis, Debye-Ang**2):
  XXX=              2.4829  YYY=              0.4161  ZZZ=              0.0000  XYY=              2.8241
  XXY=             -2.9115  XXZ=              0.0000  XZZ=             -0.5568  YZZ=             -0.5692
  YYZ=              0.0000  XYZ=              0.0000
 Hexadecapole moment (field-independent basis, Debye-Ang**3):
 XXXX=           -125.2135 YYYY=            -93.3774 ZZZZ=            -16.3173 XXXY=            -22.9961
 XXXZ=              0.0000 YYYX=            -20.8554 YYYZ=              0.0000 ZZZX=              0.0000
 ZZZY=              0.0000 XXYY=            -35.0130 XXZZ=            -23.4383 YYZZ=            -17.9964
 XXYZ=              0.0000 YYXZ=              0.0000 ZZXY=             -6.3337
 N-N= 1.227021884717D+02 E-N=-9.065301443727D+02  KE= 2.790820693896D+02
 Symmetry A'   KE= 2.654502530430D+02
 Symmetry A"   KE= 1.363181634662D+01
 Symmetry A'   SP=-5.023756052600D-15
 Symmetry A"   SP=-1.221975577952D-15
                          Isotropic Fermi Contact Couplings
        Atom                 a.u.       MegaHertz       Gauss      10(-4) cm-1
     1  O(17)             -0.00000       0.00000       0.00000       0.00000
     2  N(14)             -0.00000      -0.00000      -0.00000      -0.00000
     3  O(17)             -0.00000       0.00000       0.00000       0.00000
     4  O(17)             -0.00000       0.00000       0.00000       0.00000
     5  H(1)              -0.00000      -0.00000      -0.00000      -0.00000
 --------------------------------------------------------
       Center         ----  Spin Dipole Couplings  ----
                      3XX-RR        3YY-RR        3ZZ-RR
 --------------------------------------------------------
     1   Atom        0.000000      0.000000      0.000000
     2   Atom        0.000000      0.000000      0.000000
     3   Atom        0.000000      0.000000      0.000000
     4   Atom        0.000000      0.000000      0.000000
     5   Atom        0.000000      0.000000      0.000000
 --------------------------------------------------------
                        XY            XZ            YZ
 --------------------------------------------------------
     1   Atom        0.000000      0.000000      0.000000
     2   Atom        0.000000      0.000000      0.000000
     3   Atom        0.000000      0.000000      0.000000
     4   Atom        0.000000      0.000000      0.000000
     5   Atom        0.000000      0.000000      0.000000
 --------------------------------------------------------


 ---------------------------------------------------------------------------------
              Anisotropic Spin Dipole Couplings in Principal Axis System
 ---------------------------------------------------------------------------------

       Atom             a.u.   MegaHertz   Gauss  10(-4) cm-1        Axes

              Baa     0.0000    -0.000    -0.000    -0.000  1.0000  0.0000  0.0000
     1 O(17)  Bbb     0.0000    -0.000    -0.000    -0.000 -0.0000  1.0000  0.0000
              Bcc     0.0000    -0.000    -0.000    -0.000  0.0000  0.0000  1.0000
 
              Baa     0.0000     0.000     0.000     0.000  1.0000  0.0000  0.0000
     2 N(14)  Bbb     0.0000     0.000     0.000     0.000 -0.0000  1.0000  0.0000
              Bcc     0.0000     0.000     0.000     0.000  0.0000  0.0000  1.0000
 
              Baa     0.0000    -0.000    -0.000    -0.000  1.0000  0.0000  0.0000
     3 O(17)  Bbb     0.0000    -0.000    -0.000    -0.000 -0.0000  1.0000  0.0000
              Bcc     0.0000    -0.000    -0.000    -0.000  0.0000  0.0000  1.0000
 
              Baa     0.0000    -0.000    -0.000    -0.000  1.0000  0.0000  0.0000
     4 O(17)  Bbb     0.0000    -0.000    -0.000    -0.000 -0.0000  1.0000  0.0000
              Bcc     0.0000    -0.000    -0.000    -0.000  0.0000  0.0000  1.0000
 
              Baa     0.0000     0.000     0.000     0.000  1.0000  0.0000  0.0000
     5 H(1)   Bbb     0.0000     0.000     0.000     0.000 -0.0000  1.0000  0.0000
              Bcc     0.0000     0.000     0.000     0.000  0.0000  0.0000  1.0000
 

 ---------------------------------------------------------------------------------

 1\1\GINC-GAMBA\SP\ROHF\Gen\H1N1O3\IRIKURA\29-Sep-2023\0\\# rohf/gen ge
 om=check guess=check\\peroxynitrous acid, ROHF/cc-pVTZ-F12\\0,1\O,0,-0
 .603144,-1.167815,0.\N,0,-0.992753,-0.05172,0.\O,0,0.,0.906366,0.\O,0,
 1.327571,0.379949,0.\H,0,1.153859,-0.585958,0.\\Version=ES64L-G16RevB.
 01\State=1-A'\HF=-279.5255995\RMSD=3.971e-09\Dipole=-0.017193,-0.45271
 36,0.\Quadrupole=-0.1581961,-0.637892,0.7960881,-1.8143319,0.,0.\PG=CS
  [SG(H1N1O3)]\\@


 In the beginning the Universe was created.
 This has made a lot of people very angry
 and been widely regarded as a bad move.
                               -D.Adams
 Job cpu time:       0 days  0 hours  3 minutes 15.8 seconds.
 Elapsed time:       0 days  0 hours  0 minutes 49.0 seconds.
 File lengths (MBytes):  RWF=     42 Int=      0 D2E=      0 Chk=      6 Scr=      1
 Normal termination of Gaussian 16 at Fri Sep 29 13:51:45 2023.
