 Entering Gaussian System, Link 0=g16
 AtFile(1): pcseg2.gbs
            -H     0
            S   4   1.00
                  0.754732D+02           0.427821D-02
                  0.113575D+02           0.328672D-01
                  0.260081D+01           0.159578D+00
                  0.735503D+00           0.500000D+00
            S   1   1.00
                  0.231761D+00           1.0000000
            S   1   1.00
                  0.741675D-01           1.0000000
            P   1   1.00
                  0.160000D+01           1.0000000
            P   1   1.00
                  0.450000D+00           1.0000000
            D   1   1.00
                  0.125000D+01           1.0000000
            ****
            -C     0
            S   7   1.00
                  0.731999D+04           0.695369D-03
                  0.109818D+04           0.537138D-02
                  0.250014D+03           0.274734D-01
                  0.707586D+02           0.105078D+00
                  0.228595D+02           0.291262D+00
                  0.803936D+01           0.500000D+00
                  0.289309D+01           0.362224D+00
            S   2   1.00
                  0.521640D+01          -0.957844D-01
                  0.556124D+00           0.500000D+00
            S   1   1.00
                  0.228813D+00           1.0000000
            S   1   1.00
                  0.936338D-01           1.0000000
            P   4   1.00
                  0.339855D+02           0.818395D-02
                  0.772957D+01           0.586921D-01
                  0.224954D+01           0.222514D+00
                  0.767681D+00           0.500000D+00
            P   1   1.00
                  0.263283D+00           1.0000000
            P   1   1.00
                  0.848744D-01           1.0000000
            D   1   1.00
                  0.140000D+01           1.0000000
            D   1   1.00
                  0.450000D+00           1.0000000
            F   1   1.00
                  0.950000D+00           1.0000000
            ****
            -O     0
            S   7   1.00
                  0.135887D+05           0.665492D-03
                  0.203847D+04           0.514222D-02
                  0.464041D+03           0.263472D-01
                  0.131339D+03           0.101500D+00
                  0.425340D+02           0.285877D+00
                  0.150429D+02           0.500000D+00
                  0.546616D+01           0.368211D+00
            S   2   1.00
                  0.100915D+02          -0.100084D+00
                  0.110429D+01           0.500000D+00
            S   1   1.00
                  0.448082D+00           1.0000000
            S   1   1.00
                  0.175325D+00           1.0000000
            P   4   1.00
                  0.608220D+02           0.908253D-02
                  0.140332D+02           0.645878D-01
                  0.418244D+01           0.241502D+00
                  0.142490D+01           0.500000D+00
            P   1   1.00
                  0.478741D+00           1.0000000
            P   1   1.00
                  0.146257D+00           1.0000000
            D   1   1.00
                  0.220000D+01           1.0000000
            D   1   1.00
                  0.650000D+00           1.0000000
            F   1   1.00
                  0.110000D+01           1.0000000
            ****
            -N     0
            S   7   1.00
                  0.101643D+05           0.682757D-03
                  0.152481D+04           0.527488D-02
                  0.347119D+03           0.270037D-01
                  0.982389D+02           0.103673D+00
                  0.317799D+02           0.289575D+00
                  0.112240D+02           0.500000D+00
                  0.406611D+01           0.364621D+00
            S   2   1.00
                  0.747898D+01          -0.975681D-01
                  0.805040D+00           0.500000D+00
            S   1   1.00
                  0.324626D+00           1.0000000
            S   1   1.00
                  0.128132D+00           1.0000000
            P   4   1.00
                  0.482704D+02           0.829547D-02
                  0.110815D+02           0.596223D-01
                  0.326643D+01           0.227889D+00
                  0.111680D+01           0.500000D+00
            P   1   1.00
                  0.382049D+00           1.0000000
            P   1   1.00
                  0.121222D+00           1.0000000
            D   1   1.00
                  0.180000D+01           1.0000000
            D   1   1.00
                  0.550000D+00           1.0000000
            F   1   1.00
                  0.102000D+01           1.0000000
            ****
            -F     0
            S   7   1.00
                  0.174507D+05           0.655972D-03
                  0.261768D+04           0.506944D-02
                  0.595857D+03           0.259899D-01
                  0.168651D+03           0.100353D+00
                  0.546654D+02           0.284095D+00
                  0.193717D+02           0.500000D+00
                  0.706202D+01           0.370721D+00
            S   2   1.00
                  0.131197D+02          -0.101997D+00
                  0.145046D+01           0.500000D+00
            S   1   1.00
                  0.588255D+00           1.0000000
            S   1   1.00
                  0.227960D+00           1.0000000
            P   4   1.00
                  0.779407D+02           0.931135D-02
                  0.180425D+02           0.663964D-01
                  0.542342D+01           0.246386D+00
                  0.184876D+01           0.500000D+00
            P   1   1.00
                  0.617455D+00           1.0000000
            P   1   1.00
                  0.185496D+00           1.0000000
            D   1   1.00
                  0.280000D+01           1.0000000
            D   1   1.00
                  0.800000D+00           1.0000000
            F   1   1.00
                  0.120000D+01           1.0000000
            ****
            -Cl     0
            S   8   1.00
                  0.154272D+06           0.222473D-03
                  0.231232D+05           0.172590D-02
                  0.526257D+04           0.899286D-02
                  0.148995D+04           0.367724D-01
                  0.485417D+03           0.121446D+00
                  0.174634D+03           0.304148D+00
                  0.672393D+02           0.500000D+00
                  0.265780D+02           0.360252D+00
            S   3   1.00
                  0.131826D+03          -0.531330D-01
                  0.400703D+02          -0.233346D+00
                  0.789448D+01           0.500000D+00
            S   2   1.00
                  0.427711D+01           0.500000D+00
                  0.196233D+01           0.370517D+00
            S   1   1.00
                  0.520793D+00           1.0000000
            S   1   1.00
                  0.181633D+00           1.0000000
            P   7   1.00
                  0.124440D+04           0.988206D-03
                  0.295109D+03           0.829674D-02
                  0.947224D+02           0.430906D-01
                  0.352588D+02           0.148443D+00
                  0.144211D+02           0.344744D+00
                  0.610371D+01           0.500000D+00
                  0.258886D+01           0.348278D+00
            P   2   1.00
                  0.109447D+02          -0.196768D-01
                  0.104413D+01           0.500000D+00
            P   1   1.00
                  0.376184D+00           1.0000000
            P   1   1.00
                  0.120613D+00           1.0000000
            D   1   1.00
                  0.231000D+01           1.0000000
            D   1   1.00
                  0.520000D+00           1.0000000
            F   1   1.00
                  0.720000D+00           1.0000000
            ****
            -S     0
            S   8   1.00
                  0.134700D+06           0.226231D-03
                  0.201904D+05           0.175488D-02
                  0.459528D+04           0.914190D-02
                  0.130109D+04           0.373551D-01
                  0.423902D+03           0.123121D+00
                  0.152485D+03           0.306801D+00
                  0.586925D+02           0.500000D+00
                  0.231461D+02           0.354358D+00
            S   3   1.00
                  0.116327D+03          -0.491772D-01
                  0.352841D+02          -0.215962D+00
                  0.677831D+01           0.500000D+00
            S   2   1.00
                  0.360404D+01           0.500000D+00
                  0.164871D+01           0.366278D+00
            S   1   1.00
                  0.421821D+00           1.0000000
            S   1   1.00
                  0.147554D+00           1.0000000
            P   7   1.00
                  0.104863D+04           0.105273D-02
                  0.248717D+03           0.879338D-02
                  0.797887D+02           0.453358D-01
                  0.296023D+02           0.154476D+00
                  0.120627D+02           0.352366D+00
                  0.507628D+01           0.500000D+00
                  0.213375D+01           0.346429D+00
            P   2   1.00
                  0.928958D+01          -0.185932D-01
                  0.837819D+00           0.500000D+00
            P   1   1.00
                  0.301495D+00           1.0000000
            P   1   1.00
                  0.974740D-01           1.0000000
            D   1   1.00
                  0.210000D+01           1.0000000
            D   1   1.00
                  0.480000D+00           1.0000000
            F   1   1.00
                  0.660000D+00           1.0000000
            ****
            -Br     0
            S    10   1.00
                  0.233625D+07           0.532336D-04
                  0.349961D+06           0.413715D-03
                  0.796444D+05           0.217123D-02
                  0.225555D+05           0.910109D-02
                  0.735546D+04           0.323789D-01
                  0.265352D+04           0.988755D-01
                  0.103517D+04           0.248138D+00
                  0.422205D+03           0.474328D+00
                  0.180035D+03           0.500000D+00
                  0.793308D+02           0.187769D+00
            S    4   1.00
                  0.620834D+03          -0.226511D-01
                  0.190829D+03          -0.109497D+00
                  0.312505D+02           0.500000D+00
                  0.135270D+02           0.492812D+00
            S    2   1.00
                  0.216097D+02          -0.165418D+00
                  0.372566D+01           0.500000D+00
            S    1   1.00
                  0.169770D+01           1.0000000
            S    1   1.00
                  0.489332D+00           1.0000000
            S    1   1.00
                  0.175712D+00           1.0000000
            P    8   1.00
                  0.960829D+04           0.478974D-03
                  0.227618D+04           0.417853D-02
                  0.736723D+03           0.229315D-01
                  0.281579D+03           0.892653D-01
                  0.118395D+03           0.255288D+00
                  0.527481D+02           0.479074D+00
                  0.245098D+02           0.500000D+00
                  0.112009D+02           0.200944D+00
            P    4   1.00
                  0.587849D+02          -0.189674D-01
                  0.918962D+01           0.264104D+00
                  0.413895D+01           0.500000D+00
                  0.184225D+01           0.319316D+00
            P    1   1.00
                  0.713862D+00           1.0000000
            P    1   1.00
                  0.274232D+00           1.0000000
            P    1   1.00
                  0.944411D-01           1.0000000
            D    7   1.00
                  0.398470D+03           0.204066D-02
                  0.118967D+03           0.175171D-01
                  0.450197D+02           0.829708D-01
                  0.190320D+02           0.236284D+00
                  0.855686D+01           0.428468D+00
                  0.382950D+01           0.500000D+00
                  0.166291D+01           0.349360D+00
            D    1   1.00
                  0.672953D+00           1.0000000
            D    1   1.00
                  0.252000D+00           1.0000000
            F    1   1.00
                  0.530000D+00           1.0000000
            ****
            -Si     0
            S    8   1.00
                  0.996133D+05           0.235546D-03
                  0.149311D+05           0.182707D-02
                  0.339820D+04           0.951425D-02
                  0.962140D+03           0.388172D-01
                  0.313430D+03           0.127328D+00
                  0.112683D+03           0.313522D+00
                  0.433372D+02           0.500000D+00
                  0.170029D+02           0.340347D+00
            S    3   1.00
                  0.884208D+02          -0.404451D-01
                  0.266756D+02          -0.178059D+00
                  0.479640D+01           0.500000D+00
            S    2   1.00
                  0.239385D+01           0.500000D+00
                  0.108333D+01           0.338016D+00
            S    1   1.00
                  0.252420D+00           1.0000000
            S    1   1.00
                  0.891210D-01           1.0000000
            P    7   1.00
                  0.709901D+03           0.123028D-02
                  0.168426D+03           0.101366D-01
                  0.539946D+02           0.511840D-01
                  0.198646D+02           0.169967D+00
                  0.801369D+01           0.370717D+00
                  0.331870D+01           0.500000D+00
                  0.136112D+01           0.344128D+00
            P    2   1.00
                  0.622158D+01          -0.166609D-01
                  0.503049D+00           0.500000D+00
            P    1   1.00
                  0.179848D+00           1.0000000
            P    1   1.00
                  0.591912D-01           1.0000000
            D    1   1.00
                  0.168000D+01           1.0000000
            D    1   1.00
                  0.380000D+00           1.0000000
            F    1   1.00
                  0.540000D+00           1.0000000
            ****
            -P     0
            S    8   1.00
                  0.116416D+06           0.230715D-03
                  0.174500D+05           0.178960D-02
                  0.397149D+04           0.932116D-02
                  0.112447D+04           0.380591D-01
                  0.366347D+03           0.125148D+00
                  0.131757D+03           0.310022D+00
                  0.506988D+02           0.500000D+00
                  0.199436D+02           0.347528D+00
            S    3   1.00
                  0.101878D+03          -0.446755D-01
                  0.308249D+02          -0.196376D+00
                  0.573688D+01           0.500000D+00
            S    2   1.00
                  0.296868D+01           0.500000D+00
                  0.135315D+01           0.355098D+00
            S    1   1.00
                  0.332196D+00           1.0000000
            S    1   1.00
                  0.116229D+00           1.0000000
            P    7   1.00
                  0.873928D+03           0.112375D-02
                  0.207298D+03           0.933330D-02
                  0.664628D+02           0.477213D-01
                  0.245665D+02           0.160733D+00
                  0.996820D+01           0.359760D+00
                  0.416536D+01           0.500000D+00
                  0.173022D+01           0.346593D+00
            P    2   1.00
                  0.772530D+01          -0.175718D-01
                  0.657252D+00           0.500000D+00
            P    1   1.00
                  0.239903D+00           1.0000000
            P    1   1.00
                  0.800988D-01           1.0000000
            D    1   1.00
                  0.189000D+01           1.0000000
            D    1   1.00
                  0.430000D+00           1.0000000
            F    1   1.00
                  0.600000D+00           1.0000000
            ****
            
 Initial command:
 /usr/local/apps/g16_b01_avx/g16/l1.exe "/wrk/irikura/Gau-2669.inp" -scrdir="/wrk/irikura/"
 Entering Link 1 = /usr/local/apps/g16_b01_avx/g16/l1.exe PID=      2671.
  
 Copyright (c) 1988-2017, Gaussian, Inc.  All Rights Reserved.
  
 This is part of the Gaussian(R) 16 program.  It is based on
 the Gaussian(R) 09 system (copyright 2009, Gaussian, Inc.),
 the Gaussian(R) 03 system (copyright 2003, Gaussian, Inc.),
 the Gaussian(R) 98 system (copyright 1998, Gaussian, Inc.),
 the Gaussian(R) 94 system (copyright 1995, Gaussian, Inc.),
 the Gaussian 92(TM) system (copyright 1992, Gaussian, Inc.),
 the Gaussian 90(TM) system (copyright 1990, Gaussian, Inc.),
 the Gaussian 88(TM) system (copyright 1988, Gaussian, Inc.),
 the Gaussian 86(TM) system (copyright 1986, Carnegie Mellon
 University), and the Gaussian 82(TM) system (copyright 1983,
 Carnegie Mellon University). Gaussian is a federally registered
 trademark of Gaussian, Inc.
  
 This software contains proprietary and confidential information,
 including trade secrets, belonging to Gaussian, Inc.
  
 This software is provided under written license and may be
 used, copied, transmitted, or stored only in accord with that
 written license.
  
 The following legend is applicable only to US Government
 contracts under FAR:
  
                    RESTRICTED RIGHTS LEGEND
  
 Use, reproduction and disclosure by the US Government is
 subject to restrictions as set forth in subparagraphs (a)
 and (c) of the Commercial Computer Software - Restricted
 Rights clause in FAR 52.227-19.
  
 Gaussian, Inc.
 340 Quinnipiac St., Bldg. 40, Wallingford CT 06492
  
  
 ---------------------------------------------------------------
 Warning -- This program may not be used in any manner that
 competes with the business of Gaussian, Inc. or will provide
 assistance to any competitor of Gaussian, Inc.  The licensee
 of this program is prohibited from giving any competitor of
 Gaussian, Inc. access to this program.  By using this program,
 the user acknowledges that Gaussian, Inc. is engaged in the
 business of creating and licensing software in the field of
 computational chemistry and represents and warrants to the
 licensee that it is not a competitor of Gaussian, Inc. and that
 it will not use this program in any manner prohibited above.
 ---------------------------------------------------------------
  

 Cite this work as:
 Gaussian 16, Revision B.01,
 M. J. Frisch, G. W. Trucks, H. B. Schlegel, G. E. Scuseria, 
 M. A. Robb, J. R. Cheeseman, G. Scalmani, V. Barone, 
 G. A. Petersson, H. Nakatsuji, X. Li, M. Caricato, A. V. Marenich, 
 J. Bloino, B. G. Janesko, R. Gomperts, B. Mennucci, H. P. Hratchian, 
 J. V. Ortiz, A. F. Izmaylov, J. L. Sonnenberg, D. Williams-Young, 
 F. Ding, F. Lipparini, F. Egidi, J. Goings, B. Peng, A. Petrone, 
 T. Henderson, D. Ranasinghe, V. G. Zakrzewski, J. Gao, N. Rega, 
 G. Zheng, W. Liang, M. Hada, M. Ehara, K. Toyota, R. Fukuda, 
 J. Hasegawa, M. Ishida, T. Nakajima, Y. Honda, O. Kitao, H. Nakai, 
 T. Vreven, K. Throssell, J. A. Montgomery, Jr., J. E. Peralta, 
 F. Ogliaro, M. J. Bearpark, J. J. Heyd, E. N. Brothers, K. N. Kudin, 
 V. N. Staroverov, T. A. Keith, R. Kobayashi, J. Normand, 
 K. Raghavachari, A. P. Rendell, J. C. Burant, S. S. Iyengar, 
 J. Tomasi, M. Cossi, J. M. Millam, M. Klene, C. Adamo, R. Cammi, 
 J. W. Ochterski, R. L. Martin, K. Morokuma, O. Farkas, 
 J. B. Foresman, and D. J. Fox, Gaussian, Inc., Wallingford CT, 2016.
 
 ******************************************
 Gaussian 16:  ES64L-G16RevB.01 20-Dec-2017
                17-Jun-2022 
 ******************************************
 %mem=1000mw
 %nprocs=12
 Will use up to   12 processors via shared memory.
 --------------------
 # b3lyp/gen opt freq
 --------------------
 1/18=20,19=15,26=3,38=1/1,3;
 2/9=110,12=2,17=6,18=5,40=1/2;
 3/5=7,11=2,25=1,30=1,71=1,74=-5/1,2,3;
 4//1;
 5/5=2,38=5/2;
 6/7=2,8=2,9=2,10=2,28=1/1;
 7//1,2,3,16;
 1/18=20,19=15,26=3/3(2);
 2/9=110/2;
 99//99;
 2/9=110/2;
 3/5=7,6=1,11=2,25=1,30=1,71=1,74=-5,82=7/1,2,3;
 4/5=5,16=3,69=1/1;
 5/5=2,38=5/2;
 7//1,2,3,16;
 1/18=20,19=15,26=3/3(-5);
 2/9=110/2;
 6/7=2,8=2,9=2,10=2,19=2,28=1/1;
 99/9=1/99;
 ------------------------
 iso-butyl, B3LYP/pcseg-2
 ------------------------
 Symbolic Z-matrix:
 Charge =  0 Multiplicity = 2
 C                     0.        0.35343   0. 
 C                     1.47905   0.14799   0. 
 H                    -0.19498   1.44249   0. 
 H                     2.04217   0.15119   0.92702 
 H                     2.04217   0.15119  -0.92702 
 C                    -0.65343  -0.21508  -1.27041 
 C                    -0.65343  -0.21508   1.27041 
 H                    -0.52325  -1.30034  -1.32361 
 H                    -1.72642  -0.00354  -1.29136 
 H                    -0.21159   0.21768  -2.17266 
 H                    -0.52325  -1.30034   1.32361 
 H                    -1.72642  -0.00354   1.29136 
 H                    -0.21159   0.21768   2.17266 
 

 GradGradGradGradGradGradGradGradGradGradGradGradGradGradGradGradGradGrad
 Berny optimization.
 Initialization pass.
                           ----------------------------
                           !    Initial Parameters    !
                           ! (Angstroms and Degrees)  !
 --------------------------                            --------------------------
 ! Name  Definition              Value          Derivative Info.                !
 --------------------------------------------------------------------------------
 ! R1    R(1,2)                  1.4933         estimate D2E/DX2                !
 ! R2    R(1,3)                  1.1064         estimate D2E/DX2                !
 ! R3    R(1,6)                  1.5376         estimate D2E/DX2                !
 ! R4    R(1,7)                  1.5376         estimate D2E/DX2                !
 ! R5    R(2,4)                  1.0847         estimate D2E/DX2                !
 ! R6    R(2,5)                  1.0847         estimate D2E/DX2                !
 ! R7    R(6,8)                  1.0943         estimate D2E/DX2                !
 ! R8    R(6,9)                  1.0938         estimate D2E/DX2                !
 ! R9    R(6,10)                 1.0939         estimate D2E/DX2                !
 ! R10   R(7,11)                 1.0943         estimate D2E/DX2                !
 ! R11   R(7,12)                 1.0938         estimate D2E/DX2                !
 ! R12   R(7,13)                 1.0939         estimate D2E/DX2                !
 ! A1    A(2,1,3)              108.0583         estimate D2E/DX2                !
 ! A2    A(2,1,6)              111.7197         estimate D2E/DX2                !
 ! A3    A(2,1,7)              111.7197         estimate D2E/DX2                !
 ! A4    A(3,1,6)              106.8018         estimate D2E/DX2                !
 ! A5    A(3,1,7)              106.8018         estimate D2E/DX2                !
 ! A6    A(6,1,7)              111.4303         estimate D2E/DX2                !
 ! A7    A(1,2,4)              120.9187         estimate D2E/DX2                !
 ! A8    A(1,2,5)              120.9187         estimate D2E/DX2                !
 ! A9    A(4,2,5)              117.4464         estimate D2E/DX2                !
 ! A10   A(1,6,8)              110.8723         estimate D2E/DX2                !
 ! A11   A(1,6,9)              111.1732         estimate D2E/DX2                !
 ! A12   A(1,6,10)             111.3195         estimate D2E/DX2                !
 ! A13   A(8,6,9)              107.9115         estimate D2E/DX2                !
 ! A14   A(8,6,10)             107.7097         estimate D2E/DX2                !
 ! A15   A(9,6,10)             107.6935         estimate D2E/DX2                !
 ! A16   A(1,7,11)             110.8723         estimate D2E/DX2                !
 ! A17   A(1,7,12)             111.1732         estimate D2E/DX2                !
 ! A18   A(1,7,13)             111.3195         estimate D2E/DX2                !
 ! A19   A(11,7,12)            107.9115         estimate D2E/DX2                !
 ! A20   A(11,7,13)            107.7097         estimate D2E/DX2                !
 ! A21   A(12,7,13)            107.6935         estimate D2E/DX2                !
 ! D1    D(3,1,2,4)             85.0281         estimate D2E/DX2                !
 ! D2    D(3,1,2,5)            -85.0281         estimate D2E/DX2                !
 ! D3    D(6,1,2,4)           -157.7685         estimate D2E/DX2                !
 ! D4    D(6,1,2,5)             32.1754         estimate D2E/DX2                !
 ! D5    D(7,1,2,4)            -32.1754         estimate D2E/DX2                !
 ! D6    D(7,1,2,5)            157.7685         estimate D2E/DX2                !
 ! D7    D(2,1,6,8)             63.5885         estimate D2E/DX2                !
 ! D8    D(2,1,6,9)           -176.3671         estimate D2E/DX2                !
 ! D9    D(2,1,6,10)           -56.2984         estimate D2E/DX2                !
 ! D10   D(3,1,6,8)           -178.4528         estimate D2E/DX2                !
 ! D11   D(3,1,6,9)            -58.4084         estimate D2E/DX2                !
 ! D12   D(3,1,6,10)            61.6603         estimate D2E/DX2                !
 ! D13   D(7,1,6,8)            -62.164          estimate D2E/DX2                !
 ! D14   D(7,1,6,9)             57.8804         estimate D2E/DX2                !
 ! D15   D(7,1,6,10)           177.9492         estimate D2E/DX2                !
 ! D16   D(2,1,7,11)           -63.5885         estimate D2E/DX2                !
 ! D17   D(2,1,7,12)           176.3671         estimate D2E/DX2                !
 ! D18   D(2,1,7,13)            56.2984         estimate D2E/DX2                !
 ! D19   D(3,1,7,11)           178.4528         estimate D2E/DX2                !
 ! D20   D(3,1,7,12)            58.4084         estimate D2E/DX2                !
 ! D21   D(3,1,7,13)           -61.6603         estimate D2E/DX2                !
 ! D22   D(6,1,7,11)            62.164          estimate D2E/DX2                !
 ! D23   D(6,1,7,12)           -57.8804         estimate D2E/DX2                !
 ! D24   D(6,1,7,13)          -177.9492         estimate D2E/DX2                !
 --------------------------------------------------------------------------------
 Trust Radius=3.00D-01 FncErr=1.00D-07 GrdErr=1.00D-06 EigMax=2.50D+02 EigMin=1.00D-04
 Number of steps in this run=     67 maximum allowed number of steps=    100.
 GradGradGradGradGradGradGradGradGradGradGradGradGradGradGradGradGradGrad

                          Input orientation:                          
 ---------------------------------------------------------------------
 Center     Atomic      Atomic             Coordinates (Angstroms)
 Number     Number       Type             X           Y           Z
 ---------------------------------------------------------------------
      1          6           0        0.000000    0.353428    0.000000
      2          6           0        1.479053    0.147987    0.000000
      3          1           0       -0.194983    1.442493    0.000000
      4          1           0        2.042167    0.151191    0.927021
      5          1           0        2.042167    0.151191   -0.927021
      6          6           0       -0.653430   -0.215080   -1.270412
      7          6           0       -0.653430   -0.215080    1.270412
      8          1           0       -0.523247   -1.300336   -1.323606
      9          1           0       -1.726421   -0.003543   -1.291355
     10          1           0       -0.211586    0.217677   -2.172659
     11          1           0       -0.523247   -1.300336    1.323606
     12          1           0       -1.726421   -0.003543    1.291355
     13          1           0       -0.211586    0.217677    2.172659
 ---------------------------------------------------------------------
                    Distance matrix (angstroms):
                    1          2          3          4          5
     1  C    0.000000
     2  C    1.493253   0.000000
     3  H    1.106382   2.116162   0.000000
     4  H    2.251825   1.084655   2.744389   0.000000
     5  H    2.251825   1.084655   2.744389   1.854042   0.000000
     6  C    1.537569   2.508635   2.138146   3.497014   2.741955
     7  C    1.537569   2.508635   2.138146   2.741955   3.497014
     8  H    2.181893   2.803351   3.063136   3.708585   2.974148
     9  H    2.185304   3.459136   2.470611   4.375773   3.789319
    10  H    2.187154   2.753827   2.494173   3.832993   2.575934
    11  H    2.181893   2.803351   3.063136   2.974148   3.708585
    12  H    2.185304   3.459136   2.470611   3.789319   4.375773
    13  H    2.187154   2.753827   2.494173   2.575934   3.832993
                    6          7          8          9         10
     6  C    0.000000
     7  C    2.540824   0.000000
     8  H    1.094330   2.814899   0.000000
     9  H    1.093845   2.785446   1.769277   0.000000
    10  H    1.093871   3.498177   1.767028   1.766454   0.000000
    11  H    2.814899   1.094330   2.647212   3.157106   3.824312
    12  H    2.785446   1.093845   3.157106   2.582710   3.787223
    13  H    3.498177   1.093871   3.824312   3.787223   4.345318
                   11         12         13
    11  H    0.000000
    12  H    1.769277   0.000000
    13  H    1.767028   1.766454   0.000000
 Stoichiometry    C4H9(2)
 Framework group  CS[SG(C2H),X(C2H8)]
 Deg. of freedom    18
 Full point group                 CS      NOp   2
 Largest Abelian subgroup         CS      NOp   2
 Largest concise Abelian subgroup CS      NOp   2
                         Standard orientation:                         
 ---------------------------------------------------------------------
 Center     Atomic      Atomic             Coordinates (Angstroms)
 Number     Number       Type             X           Y           Z
 ---------------------------------------------------------------------
      1          6           0       -0.266636    0.231983    0.000000
      2          6           0        0.859177    1.212977   -0.000000
      3          1           0       -1.216242    0.799724    0.000000
      4          1           0        1.226377    1.639910    0.927021
      5          1           0        1.226377    1.639910   -0.927021
      6          6           0       -0.266636   -0.634141   -1.270412
      7          6           0       -0.266636   -0.634141    1.270412
      8          1           0        0.637562   -1.248269   -1.323606
      9          1           0       -1.130517   -1.304788   -1.291355
     10          1           0       -0.303103   -0.016748   -2.172659
     11          1           0        0.637562   -1.248269    1.323606
     12          1           0       -1.130517   -1.304788    1.291355
     13          1           0       -0.303103   -0.016748    2.172659
 ---------------------------------------------------------------------
 Rotational constants (GHZ):           8.4103630           7.8866080           4.6044894
 General basis read from cards:  (5D, 7F)
 There are   154 symmetry adapted cartesian basis functions of A'  symmetry.
 There are   121 symmetry adapted cartesian basis functions of A"  symmetry.
 There are   136 symmetry adapted basis functions of A'  symmetry.
 There are   110 symmetry adapted basis functions of A"  symmetry.
   246 basis functions,   366 primitive gaussians,   275 cartesian basis functions
    17 alpha electrons       16 beta electrons
       nuclear repulsion energy       126.1930122914 Hartrees.
 NAtoms=   13 NActive=   13 NUniq=    8 SFac= 2.64D+00 NAtFMM=   60 NAOKFM=F Big=F
 Integral buffers will be    131072 words long.
 Raffenetti 2 integral format.
 Two-electron integral symmetry is turned on.
 One-electron integrals computed using PRISM.
 NBasis=   246 RedAO= T EigKep=  4.06D-04  NBF=   136   110
 NBsUse=   246 1.00D-06 EigRej= -1.00D+00 NBFU=   136   110
 ExpMin= 7.42D-02 ExpMax= 7.32D+03 ExpMxC= 2.50D+02 IAcc=3 IRadAn=         5 AccDes= 0.00D+00
 Harris functional with IExCor=  402 and IRadAn=       5 diagonalized for initial guess.
 HarFok:  IExCor=  402 AccDes= 0.00D+00 IRadAn=         5 IDoV= 1 UseB2=F ITyADJ=14
 ICtDFT=  3500011 ScaDFX=  1.000000  1.000000  1.000000  1.000000
 FoFCou: FMM=F IPFlag=           0 FMFlag=      100000 FMFlg1=           0
         NFxFlg=           0 DoJE=T BraDBF=F KetDBF=T FulRan=T
         wScrn=  0.000000 ICntrl=       500 IOpCl=  0 I1Cent=   200000004 NGrid=           0
         NMat0=    1 NMatS0=      1 NMatT0=    0 NMatD0=    1 NMtDS0=    0 NMtDT0=    0
 Petite list used in FoFCou.
 Initial guess orbital symmetries:
 Alpha Orbitals:
       Occupied  (A") (A') (A') (A') (A') (A") (A') (A') (A') (A")
                 (A') (A") (A") (A') (A") (A') (A')
       Virtual   (A') (A') (A") (A') (A") (A') (A') (A') (A") (A")
                 (A') (A") (A") (A') (A') (A") (A') (A') (A') (A")
                 (A') (A') (A') (A') (A") (A") (A') (A") (A") (A')
                 (A') (A") (A') (A") (A") (A') (A') (A') (A") (A")
                 (A') (A") (A') (A") (A') (A") (A") (A') (A") (A')
                 (A') (A') (A") (A') (A") (A') (A') (A") (A") (A")
                 (A') (A') (A') (A") (A') (A') (A") (A") (A') (A')
                 (A') (A') (A') (A") (A") (A') (A") (A") (A') (A")
                 (A') (A') (A") (A') (A") (A") (A') (A") (A') (A')
                 (A") (A") (A') (A') (A') (A") (A') (A') (A") (A')
                 (A") (A') (A") (A") (A') (A') (A') (A") (A") (A')
                 (A') (A") (A') (A") (A') (A") (A') (A") (A') (A")
                 (A') (A") (A') (A') (A") (A") (A') (A') (A") (A')
                 (A") (A') (A") (A") (A') (A') (A") (A') (A") (A')
                 (A") (A') (A") (A") (A') (A") (A') (A") (A') (A")
                 (A') (A") (A') (A") (A') (A") (A') (A') (A") (A')
                 (A') (A") (A') (A") (A') (A') (A") (A") (A') (A")
                 (A') (A') (A") (A') (A") (A") (A') (A") (A') (A')
                 (A") (A') (A') (A') (A") (A") (A") (A') (A') (A")
                 (A') (A') (A") (A') (A') (A') (A") (A") (A") (A')
                 (A") (A") (A') (A') (A') (A") (A') (A") (A") (A")
                 (A') (A') (A') (A") (A') (A") (A') (A") (A") (A')
                 (A") (A') (A') (A') (A") (A") (A') (A") (A')
 Beta  Orbitals:
       Occupied  (A") (A') (A') (A') (A') (A") (A') (A') (A') (A")
                 (A') (A") (A") (A') (A") (A')
       Virtual   (A') (A') (A') (A") (A') (A") (A') (A') (A') (A")
                 (A") (A') (A") (A") (A') (A') (A") (A') (A') (A')
                 (A") (A') (A') (A') (A') (A") (A") (A') (A") (A")
                 (A') (A') (A") (A') (A") (A") (A') (A') (A') (A")
                 (A") (A') (A") (A') (A") (A') (A") (A") (A') (A")
                 (A') (A') (A') (A") (A') (A") (A') (A') (A") (A")
                 (A") (A') (A') (A') (A") (A') (A') (A") (A") (A')
                 (A') (A') (A') (A') (A") (A") (A') (A") (A") (A')
                 (A") (A') (A') (A") (A') (A") (A") (A') (A") (A')
                 (A') (A") (A") (A') (A') (A') (A") (A') (A') (A")
                 (A') (A") (A') (A") (A") (A') (A') (A') (A") (A")
                 (A') (A') (A") (A') (A") (A') (A") (A') (A") (A')
                 (A") (A') (A") (A') (A') (A") (A") (A') (A') (A")
                 (A') (A") (A') (A") (A") (A') (A') (A") (A') (A")
                 (A') (A") (A') (A") (A") (A') (A") (A') (A") (A')
                 (A") (A') (A") (A') (A") (A') (A") (A') (A') (A")
                 (A') (A') (A") (A') (A") (A') (A') (A") (A") (A')
                 (A") (A') (A') (A") (A') (A") (A") (A') (A") (A')
                 (A') (A") (A') (A') (A') (A") (A") (A") (A') (A')
                 (A") (A') (A') (A") (A') (A') (A') (A") (A") (A")
                 (A') (A") (A") (A') (A') (A') (A") (A') (A") (A")
                 (A") (A') (A') (A') (A") (A') (A") (A') (A") (A")
                 (A') (A") (A') (A') (A') (A") (A") (A') (A") (A')
 The electronic state of the initial guess is 2-A'.
 Initial guess <Sx>= 0.0000 <Sy>= 0.0000 <Sz>= 0.5000 <S**2>= 0.7500 S= 0.5000
 Keep R1 and R2 ints in memory in symmetry-blocked form, NReq=692523988.
 Requested convergence on RMS density matrix=1.00D-08 within 128 cycles.
 Requested convergence on MAX density matrix=1.00D-06.
 Requested convergence on             energy=1.00D-06.
 No special actions if energy rises.
 Integral accuracy reduced to 1.0D-05 until final iterations.
 Initial convergence to 1.0D-05 achieved.  Increase integral accuracy.
 SCF Done:  E(UB3LYP) =  -157.853135722     A.U. after   13 cycles
            NFock= 13  Conv=0.50D-08     -V/T= 2.0050
 <Sx>= 0.0000 <Sy>= 0.0000 <Sz>= 0.5000 <S**2>= 0.7539 S= 0.5020
 <L.S>=  0.00000000000    
 Annihilation of the first spin contaminant:
 S**2 before annihilation     0.7539,   after     0.7500

 **********************************************************************

            Population analysis using the SCF Density.

 **********************************************************************

 Orbital symmetries:
 Alpha Orbitals:
       Occupied  (A') (A') (A") (A') (A') (A") (A') (A') (A') (A")
                 (A') (A") (A") (A') (A') (A") (A')
       Virtual   (A') (A") (A') (A') (A') (A") (A') (A") (A') (A")
                 (A') (A") (A") (A') (A') (A") (A') (A') (A") (A')
                 (A') (A') (A") (A') (A') (A") (A') (A") (A") (A')
                 (A') (A") (A') (A") (A") (A') (A') (A') (A") (A")
                 (A") (A') (A') (A") (A') (A") (A') (A") (A") (A')
                 (A') (A') (A") (A') (A") (A') (A') (A") (A") (A")
                 (A') (A') (A') (A") (A') (A') (A") (A") (A') (A')
                 (A') (A') (A') (A") (A') (A") (A") (A") (A') (A")
                 (A') (A') (A") (A') (A") (A") (A') (A") (A') (A')
                 (A") (A") (A') (A') (A') (A") (A') (A') (A") (A')
                 (A") (A') (A") (A") (A') (A') (A') (A") (A") (A')
                 (A') (A") (A') (A") (A') (A") (A') (A") (A') (A")
                 (A') (A") (A') (A') (A") (A") (A') (A') (A") (A')
                 (A") (A') (A") (A') (A") (A') (A") (A') (A") (A')
                 (A") (A') (A") (A") (A') (A") (A') (A') (A") (A")
                 (A') (A") (A') (A") (A") (A') (A') (A") (A') (A')
                 (A') (A") (A') (A") (A') (A') (A") (A") (A') (A")
                 (A') (A') (A") (A') (A") (A") (A') (A") (A') (A')
                 (A") (A') (A') (A') (A") (A") (A") (A') (A') (A")
                 (A') (A') (A") (A') (A') (A') (A") (A") (A") (A')
                 (A") (A") (A') (A') (A") (A') (A') (A") (A") (A")
                 (A') (A') (A') (A") (A') (A") (A') (A") (A") (A')
                 (A') (A") (A') (A') (A") (A") (A') (A") (A')
 Beta  Orbitals:
       Occupied  (A') (A') (A") (A') (A') (A") (A') (A') (A') (A")
                 (A') (A") (A") (A') (A') (A")
       Virtual   (A') (A') (A") (A') (A') (A') (A") (A') (A") (A')
                 (A") (A') (A") (A") (A') (A") (A') (A') (A') (A")
                 (A') (A') (A") (A') (A') (A') (A") (A") (A') (A")
                 (A') (A') (A") (A') (A") (A") (A') (A') (A') (A")
                 (A") (A") (A') (A') (A") (A') (A") (A') (A") (A")
                 (A') (A') (A") (A') (A') (A") (A') (A') (A") (A")
                 (A") (A') (A') (A') (A") (A') (A') (A") (A") (A')
                 (A') (A') (A') (A') (A") (A") (A') (A") (A") (A')
                 (A") (A') (A') (A") (A') (A") (A") (A') (A") (A')
                 (A') (A") (A") (A') (A') (A') (A") (A') (A') (A")
                 (A') (A") (A') (A") (A") (A') (A') (A') (A") (A")
                 (A') (A') (A") (A') (A") (A') (A") (A') (A") (A')
                 (A") (A') (A") (A') (A') (A") (A") (A') (A") (A')
                 (A') (A") (A') (A") (A") (A') (A') (A") (A') (A")
                 (A") (A') (A') (A") (A") (A') (A') (A") (A') (A")
                 (A") (A') (A") (A') (A") (A') (A") (A') (A") (A')
                 (A') (A') (A") (A') (A") (A') (A") (A') (A") (A')
                 (A") (A') (A') (A") (A') (A") (A") (A') (A") (A')
                 (A') (A") (A') (A') (A') (A") (A") (A") (A') (A')
                 (A") (A') (A') (A") (A') (A') (A') (A") (A") (A")
                 (A') (A") (A") (A') (A') (A') (A") (A') (A") (A")
                 (A") (A') (A') (A') (A") (A') (A") (A') (A") (A")
                 (A') (A") (A') (A') (A') (A") (A") (A') (A") (A')
 The electronic state is 2-A'.
 Alpha  occ. eigenvalues --  -10.18240 -10.17651 -10.16098 -10.16098  -0.80757
 Alpha  occ. eigenvalues --   -0.68623  -0.67641  -0.56212  -0.46304  -0.44651
 Alpha  occ. eigenvalues --   -0.43731  -0.38933  -0.37391  -0.35326  -0.34478
 Alpha  occ. eigenvalues --   -0.33795  -0.20814
 Alpha virt. eigenvalues --    0.01485   0.04675   0.04860   0.05164   0.07481
 Alpha virt. eigenvalues --    0.07649   0.08241   0.10992   0.11924   0.12417
 Alpha virt. eigenvalues --    0.15398   0.17357   0.18062   0.18652   0.21433
 Alpha virt. eigenvalues --    0.23131   0.23164   0.25504   0.27741   0.28412
 Alpha virt. eigenvalues --    0.28623   0.33157   0.33264   0.33871   0.34537
 Alpha virt. eigenvalues --    0.36279   0.36419   0.36539   0.37584   0.39069
 Alpha virt. eigenvalues --    0.39457   0.41104   0.44678   0.45363   0.50399
 Alpha virt. eigenvalues --    0.52154   0.58185   0.67147   0.74041   0.78065
 Alpha virt. eigenvalues --    0.78969   0.79507   0.84893   0.87315   0.90289
 Alpha virt. eigenvalues --    0.92789   0.93535   0.94104   0.97346   0.97715
 Alpha virt. eigenvalues --    0.98368   1.01524   1.01990   1.02955   1.06905
 Alpha virt. eigenvalues --    1.07521   1.09419   1.09985   1.11442   1.12472
 Alpha virt. eigenvalues --    1.13875   1.15666   1.17799   1.21506   1.21675
 Alpha virt. eigenvalues --    1.26518   1.26866   1.29224   1.29480   1.32453
 Alpha virt. eigenvalues --    1.36621   1.43703   1.45821   1.47741   1.49093
 Alpha virt. eigenvalues --    1.49913   1.57050   1.58853   1.60571   1.63228
 Alpha virt. eigenvalues --    1.66176   1.67540   1.69666   1.76340   1.77925
 Alpha virt. eigenvalues --    1.78583   1.81741   1.85126   1.85344   1.89657
 Alpha virt. eigenvalues --    1.94988   1.98737   2.00260   2.04782   2.06688
 Alpha virt. eigenvalues --    2.13233   2.23158   2.27223   2.27505   2.32309
 Alpha virt. eigenvalues --    2.46680   2.48018   2.53439   2.56759   2.58316
 Alpha virt. eigenvalues --    2.66278   2.92406   2.97493   3.06960   3.07001
 Alpha virt. eigenvalues --    3.14733   3.19137   3.22785   3.27187   3.28973
 Alpha virt. eigenvalues --    3.29498   3.29897   3.31573   3.34796   3.36287
 Alpha virt. eigenvalues --    3.37432   3.42160   3.44385   3.47581   3.50032
 Alpha virt. eigenvalues --    3.61688   3.69960   3.70983   3.71552   3.74746
 Alpha virt. eigenvalues --    3.77071   3.79885   3.82037   3.83996   3.84303
 Alpha virt. eigenvalues --    3.85761   3.86612   3.89499   3.91244   3.94533
 Alpha virt. eigenvalues --    3.95740   4.02650   4.08645   4.10255   4.12408
 Alpha virt. eigenvalues --    4.13890   4.14181   4.17605   4.18334   4.24373
 Alpha virt. eigenvalues --    4.26929   4.28047   4.29203   4.30694   4.33346
 Alpha virt. eigenvalues --    4.33509   4.34731   4.40536   4.41927   4.45354
 Alpha virt. eigenvalues --    4.46314   4.48806   4.49036   4.51463   4.52964
 Alpha virt. eigenvalues --    4.55548   4.55756   4.58695   4.61152   4.61533
 Alpha virt. eigenvalues --    4.61595   4.62422   4.64577   4.67689   4.68078
 Alpha virt. eigenvalues --    4.69890   4.76901   4.77042   4.79329   4.84013
 Alpha virt. eigenvalues --    4.86903   4.86998   4.92257   4.93025   4.96849
 Alpha virt. eigenvalues --    5.05389   5.06488   5.08029   5.11625   5.14550
 Alpha virt. eigenvalues --    5.16688   5.23670   5.27270   5.27863   5.34936
 Alpha virt. eigenvalues --    5.37108   5.40550   5.42292   5.44722   5.46899
 Alpha virt. eigenvalues --    5.52205   5.52759   5.54423   5.56894   5.63762
 Alpha virt. eigenvalues --    5.63812   5.72750   5.74463   5.79331   5.80305
 Alpha virt. eigenvalues --    5.81367   5.82657   5.86136   5.88090   5.90087
 Alpha virt. eigenvalues --    5.91698   5.92258   5.95108   5.98658   6.00116
 Alpha virt. eigenvalues --    6.07751   6.07846   6.12144   6.17691   6.20777
 Alpha virt. eigenvalues --    6.33289   6.33484   6.40045   6.94490
  Beta  occ. eigenvalues --  -10.18319 -10.16219 -10.16058 -10.16058  -0.80064
  Beta  occ. eigenvalues --   -0.68560  -0.65316  -0.55207  -0.45703  -0.44097
  Beta  occ. eigenvalues --   -0.43501  -0.38882  -0.37133  -0.34694  -0.33729
  Beta  occ. eigenvalues --   -0.33645
  Beta virt. eigenvalues --   -0.06347   0.01644   0.04668   0.05023   0.05458
  Beta virt. eigenvalues --    0.07644   0.07703   0.08358   0.10960   0.11962
  Beta virt. eigenvalues --    0.12429   0.15736   0.17459   0.18082   0.19194
  Beta virt. eigenvalues --    0.23165   0.23314   0.23734   0.26634   0.27782
  Beta virt. eigenvalues --    0.29358   0.30062   0.33508   0.33543   0.34042
  Beta virt. eigenvalues --    0.34908   0.36292   0.36698   0.36744   0.37627
  Beta virt. eigenvalues --    0.39594   0.39819   0.41233   0.45517   0.45736
  Beta virt. eigenvalues --    0.50837   0.52327   0.58571   0.67646   0.74658
  Beta virt. eigenvalues --    0.78582   0.79445   0.79985   0.85277   0.87654
  Beta virt. eigenvalues --    0.90748   0.92833   0.93775   0.94136   0.97350
  Beta virt. eigenvalues --    0.98675   0.99192   1.02002   1.02176   1.03999
  Beta virt. eigenvalues --    1.06931   1.08315   1.09703   1.10173   1.11484
  Beta virt. eigenvalues --    1.12601   1.14376   1.16316   1.18936   1.21783
  Beta virt. eigenvalues --    1.22123   1.27438   1.28115   1.29660   1.29742
  Beta virt. eigenvalues --    1.34477   1.38655   1.45232   1.47164   1.48534
  Beta virt. eigenvalues --    1.49952   1.51461   1.57345   1.59405   1.61553
  Beta virt. eigenvalues --    1.63715   1.67063   1.67912   1.69825   1.76865
  Beta virt. eigenvalues --    1.78408   1.78685   1.82339   1.85274   1.86153
  Beta virt. eigenvalues --    1.89975   1.95137   1.99080   2.00630   2.05605
  Beta virt. eigenvalues --    2.06792   2.13558   2.23824   2.27290   2.27514
  Beta virt. eigenvalues --    2.32944   2.47820   2.48496   2.53656   2.57092
  Beta virt. eigenvalues --    2.58502   2.66682   2.93355   2.97830   3.07329
  Beta virt. eigenvalues --    3.08011   3.15158   3.19219   3.23924   3.27439
  Beta virt. eigenvalues --    3.28999   3.29536   3.31565   3.32834   3.35106
  Beta virt. eigenvalues --    3.36695   3.38112   3.42346   3.46302   3.48186
  Beta virt. eigenvalues --    3.50189   3.62496   3.71217   3.71609   3.72853
  Beta virt. eigenvalues --    3.76838   3.77162   3.80504   3.82164   3.84425
  Beta virt. eigenvalues --    3.84802   3.85875   3.86624   3.90864   3.91448
  Beta virt. eigenvalues --    3.95965   3.96485   4.03321   4.08935   4.10490
  Beta virt. eigenvalues --    4.13392   4.14806   4.16727   4.18534   4.20938
  Beta virt. eigenvalues --    4.24591   4.28069   4.29040   4.29794   4.31626
  Beta virt. eigenvalues --    4.33668   4.34105   4.36691   4.40665   4.42221
  Beta virt. eigenvalues --    4.45750   4.47030   4.49002   4.49379   4.51755
  Beta virt. eigenvalues --    4.53272   4.55890   4.56236   4.59073   4.61504
  Beta virt. eigenvalues --    4.61601   4.62056   4.62467   4.64736   4.67974
  Beta virt. eigenvalues --    4.68103   4.69934   4.77056   4.77092   4.79586
  Beta virt. eigenvalues --    4.84647   4.87004   4.87540   4.92448   4.93536
  Beta virt. eigenvalues --    4.97197   5.05479   5.06578   5.08389   5.12178
  Beta virt. eigenvalues --    5.14604   5.17075   5.24491   5.27612   5.29377
  Beta virt. eigenvalues --    5.35925   5.37619   5.40755   5.42498   5.44737
  Beta virt. eigenvalues --    5.47383   5.52358   5.53123   5.54773   5.57204
  Beta virt. eigenvalues --    5.64141   5.65588   5.73127   5.74551   5.79478
  Beta virt. eigenvalues --    5.80494   5.81639   5.82837   5.86512   5.88519
  Beta virt. eigenvalues --    5.90193   5.91905   5.92767   5.95148   5.98900
  Beta virt. eigenvalues --    6.00429   6.07933   6.08153   6.12399   6.17736
  Beta virt. eigenvalues --    6.20846   6.33433   6.33834   6.40264   6.94615
          Condensed to atoms (all electrons):
               1          2          3          4          5          6
     1  C    4.759503   0.342955   0.440954  -0.037569  -0.037569   0.331207
     2  C    0.342955   5.209384  -0.058024   0.424144   0.424144  -0.078475
     3  H    0.440954  -0.058024   0.716085  -0.000265  -0.000265  -0.057220
     4  H   -0.037569   0.424144  -0.000265   0.582278  -0.027093   0.007895
     5  H   -0.037569   0.424144  -0.000265  -0.027093   0.582278  -0.006083
     6  C    0.331207  -0.078475  -0.057220   0.007895  -0.006083   4.681425
     7  C    0.331207  -0.078475  -0.057220  -0.006083   0.007895  -0.049455
     8  H   -0.036096  -0.001636   0.012121   0.000169  -0.000866   0.423367
     9  H   -0.034111   0.013551  -0.005665  -0.000492   0.000228   0.421574
    10  H   -0.028631  -0.010774  -0.008854  -0.000045   0.002744   0.421101
    11  H   -0.036096  -0.001636   0.012121  -0.000866   0.000169  -0.011134
    12  H   -0.034111   0.013551  -0.005665   0.000228  -0.000492  -0.009740
    13  H   -0.028631  -0.010774  -0.008854   0.002744  -0.000045   0.013524
               7          8          9         10         11         12
     1  C    0.331207  -0.036096  -0.034111  -0.028631  -0.036096  -0.034111
     2  C   -0.078475  -0.001636   0.013551  -0.010774  -0.001636   0.013551
     3  H   -0.057220   0.012121  -0.005665  -0.008854   0.012121  -0.005665
     4  H   -0.006083   0.000169  -0.000492  -0.000045  -0.000866   0.000228
     5  H    0.007895  -0.000866   0.000228   0.002744   0.000169  -0.000492
     6  C   -0.049455   0.423367   0.421574   0.421101  -0.011134  -0.009740
     7  C    4.681425  -0.011134  -0.009740   0.013524   0.423367   0.421574
     8  H   -0.011134   0.638389  -0.027228  -0.027771   0.005565  -0.000927
     9  H   -0.009740  -0.027228   0.636688  -0.024584  -0.000927   0.003546
    10  H    0.013524  -0.027771  -0.024584   0.634173  -0.000219   0.000074
    11  H    0.423367   0.005565  -0.000927  -0.000219   0.638389  -0.027228
    12  H    0.421574  -0.000927   0.003546   0.000074  -0.027228   0.636688
    13  H    0.421101  -0.000219   0.000074  -0.000518  -0.027771  -0.024584
              13
     1  C   -0.028631
     2  C   -0.010774
     3  H   -0.008854
     4  H    0.002744
     5  H   -0.000045
     6  C    0.013524
     7  C    0.421101
     8  H   -0.000219
     9  H    0.000074
    10  H   -0.000518
    11  H   -0.027771
    12  H   -0.024584
    13  H    0.634173
          Atomic-Atomic Spin Densities.
               1          2          3          4          5          6
     1  C   -0.047248  -0.060071   0.013352  -0.004412  -0.004412   0.009746
     2  C   -0.060071   1.179667  -0.031997   0.010895   0.010895  -0.025407
     3  H    0.013352  -0.031997   0.112066  -0.001249  -0.001249  -0.018778
     4  H   -0.004412   0.010895  -0.001249  -0.050707   0.005721   0.000211
     5  H   -0.004412   0.010895  -0.001249   0.005721  -0.050707   0.000723
     6  C    0.009746  -0.025407  -0.018778   0.000211   0.000723   0.037082
     7  C    0.009746  -0.025407  -0.018778   0.000723   0.000211   0.016109
     8  H   -0.002217   0.009791   0.002166  -0.000176   0.000130  -0.005550
     9  H    0.001539   0.000957   0.003818   0.000019  -0.000236  -0.005113
    10  H    0.001115  -0.001403  -0.003162   0.000037   0.000304   0.002251
    11  H   -0.002217   0.009791   0.002166   0.000130  -0.000176  -0.002770
    12  H    0.001539   0.000957   0.003818  -0.000236   0.000019  -0.002564
    13  H    0.001115  -0.001403  -0.003162   0.000304   0.000037   0.001010
               7          8          9         10         11         12
     1  C    0.009746  -0.002217   0.001539   0.001115  -0.002217   0.001539
     2  C   -0.025407   0.009791   0.000957  -0.001403   0.009791   0.000957
     3  H   -0.018778   0.002166   0.003818  -0.003162   0.002166   0.003818
     4  H    0.000723  -0.000176   0.000019   0.000037   0.000130  -0.000236
     5  H    0.000211   0.000130  -0.000236   0.000304  -0.000176   0.000019
     6  C    0.016109  -0.005550  -0.005113   0.002251  -0.002770  -0.002564
     7  C    0.037082  -0.002770  -0.002564   0.001010  -0.005550  -0.005113
     8  H   -0.002770   0.000414   0.001807  -0.001108   0.000710   0.000476
     9  H   -0.002564   0.001807   0.002230  -0.001002   0.000476   0.000507
    10  H    0.001010  -0.001108  -0.001002   0.001277  -0.000187  -0.000129
    11  H   -0.005550   0.000710   0.000476  -0.000187   0.000414   0.001807
    12  H   -0.005113   0.000476   0.000507  -0.000129   0.001807   0.002230
    13  H    0.002251  -0.000187  -0.000129   0.000064  -0.001108  -0.001002
              13
     1  C    0.001115
     2  C   -0.001403
     3  H   -0.003162
     4  H    0.000304
     5  H    0.000037
     6  C    0.001010
     7  C    0.002251
     8  H   -0.000187
     9  H   -0.000129
    10  H    0.000064
    11  H   -0.001108
    12  H   -0.001002
    13  H    0.001277
 Mulliken charges and spin densities:
               1          2
     1  C    0.066987  -0.082426
     2  C   -0.187938   1.077265
     3  H    0.020751   0.059011
     4  H    0.054955  -0.038739
     5  H    0.054955  -0.038739
     6  C   -0.087987   0.006952
     7  C   -0.087987   0.006952
     8  H    0.026266   0.003487
     9  H    0.027085   0.002308
    10  H    0.029781  -0.000932
    11  H    0.026266   0.003487
    12  H    0.027085   0.002308
    13  H    0.029781  -0.000932
 Sum of Mulliken charges =  -0.00000   1.00000
 Mulliken charges and spin densities with hydrogens summed into heavy atoms:
               1          2
     1  C    0.087738  -0.023415
     2  C   -0.078028   0.999787
     6  C   -0.004855   0.011814
     7  C   -0.004855   0.011814
 Electronic spatial extent (au):  <R**2>=            340.4831
 Charge=             -0.0000 electrons
 Dipole moment (field-independent basis, Debye):
    X=             -0.3371    Y=             -0.0176    Z=             -0.0000  Tot=              0.3376
 Quadrupole moment (field-independent basis, Debye-Ang):
   XX=            -28.6057   YY=            -28.6024   ZZ=            -27.8738
   XY=              0.2275   XZ=              0.0000   YZ=              0.0000
 Traceless Quadrupole moment (field-independent basis, Debye-Ang):
   XX=             -0.2450   YY=             -0.2418   ZZ=              0.4868
   XY=              0.2275   XZ=              0.0000   YZ=              0.0000
 Octapole moment (field-independent basis, Debye-Ang**2):
  XXX=             -3.3166  YYY=             -2.1493  ZZZ=              0.0000  XYY=              0.3977
  XXY=             -0.7229  XXZ=             -0.0000  XZZ=              0.5950  YZZ=              2.4107
  YYZ=             -0.0000  XYZ=             -0.0000
 Hexadecapole moment (field-independent basis, Debye-Ang**3):
 XXXX=           -107.1800 YYYY=           -176.5766 ZZZZ=           -221.3951 XXXY=            -32.0558
 XXXZ=              0.0000 YYYX=            -30.6618 YYYZ=              0.0000 ZZZX=              0.0000
 ZZZY=             -0.0000 XXYY=            -41.4798 XXZZ=            -54.0998 YYZZ=            -63.9476
 XXYZ=              0.0000 YYXZ=              0.0000 ZZXY=             -9.3249
 N-N= 1.261930122914D+02 E-N=-6.173211238429D+02  KE= 1.570633841881D+02
 Symmetry A'   KE= 1.136639180432D+02
 Symmetry A"   KE= 4.339946614487D+01
 Symmetry A'   SP= 1.000000000000D+00
 Symmetry A"   SP= 1.474351463987D-15
                          Isotropic Fermi Contact Couplings
        Atom                 a.u.       MegaHertz       Gauss      10(-4) cm-1
     1  C(13)             -0.03037     -34.14653     -12.18433     -11.39006
     2  C(13)              0.13602     152.91105      54.56246      51.00564
     3  H(1)               0.02991     133.70413      47.70896      44.59890
     4  H(1)              -0.01339     -59.86137     -21.36002     -19.96760
     5  H(1)              -0.01339     -59.86137     -21.36002     -19.96760
     6  C(13)              0.02140      24.05342       8.58286       8.02336
     7  C(13)              0.02140      24.05342       8.58286       8.02336
     8  H(1)              -0.00042      -1.86170      -0.66430      -0.62100
     9  H(1)               0.00008       0.37838       0.13502       0.12621
    10  H(1)              -0.00034      -1.51304      -0.53989      -0.50469
    11  H(1)              -0.00042      -1.86170      -0.66430      -0.62100
    12  H(1)               0.00008       0.37838       0.13502       0.12621
    13  H(1)              -0.00034      -1.51304      -0.53989      -0.50469
 --------------------------------------------------------
       Center         ----  Spin Dipole Couplings  ----
                      3XX-RR        3YY-RR        3ZZ-RR
 --------------------------------------------------------
     1   Atom        0.012714      0.003559     -0.016273
     2   Atom        0.257261      0.320500     -0.577761
     3   Atom        0.015269     -0.003759     -0.011510
     4   Atom       -0.018813     -0.013254      0.032067
     5   Atom       -0.018813     -0.013254      0.032067
     6   Atom       -0.008477     -0.002419      0.010896
     7   Atom       -0.008477     -0.002419      0.010896
     8   Atom       -0.004412      0.006576     -0.002164
     9   Atom        0.000155      0.001816     -0.001971
    10   Atom       -0.002902     -0.002946      0.005848
    11   Atom       -0.004412      0.006576     -0.002164
    12   Atom        0.000155      0.001816     -0.001971
    13   Atom       -0.002902     -0.002946      0.005848
 --------------------------------------------------------
                        XY            XZ            YZ
 --------------------------------------------------------
     1   Atom        0.000947     -0.000000     -0.000000
     2   Atom       -0.871090     -0.000000     -0.000000
     3   Atom        0.005638      0.000000     -0.000000
     4   Atom       -0.020073      0.041992      0.045678
     5   Atom       -0.020073     -0.041992     -0.045678
     6   Atom        0.008900      0.010798      0.016127
     7   Atom        0.008900     -0.010798     -0.016127
     8   Atom        0.001580      0.000746      0.008645
     9   Atom        0.004206      0.002191      0.003296
    10   Atom        0.002527      0.005464      0.005142
    11   Atom        0.001580     -0.000746     -0.008645
    12   Atom        0.004206     -0.002191     -0.003296
    13   Atom        0.002527     -0.005464     -0.005142
 --------------------------------------------------------


 ---------------------------------------------------------------------------------
              Anisotropic Spin Dipole Couplings in Principal Axis System
 ---------------------------------------------------------------------------------

       Atom             a.u.   MegaHertz   Gauss  10(-4) cm-1        Axes

              Baa    -0.0163    -2.184    -0.779    -0.728  0.0000  0.0000  1.0000
     1 C(13)  Bbb     0.0035     0.465     0.166     0.155 -0.1019  0.9948 -0.0000
              Bcc     0.0128     1.719     0.613     0.573  0.9948  0.1019 -0.0000
 
              Baa    -0.5828   -78.204   -27.905   -26.086  0.7198  0.6942  0.0000
     2 C(13)  Bbb    -0.5778   -77.530   -27.665   -25.861 -0.0000 -0.0000  1.0000
              Bcc     1.1605   155.734    55.570    51.947 -0.6942  0.7198  0.0000
 
              Baa    -0.0115    -6.141    -2.191    -2.049 -0.0000  0.0000  1.0000
     3 H(1)   Bbb    -0.0053    -2.830    -1.010    -0.944 -0.2643  0.9644 -0.0000
              Bcc     0.0168     8.971     3.201     2.992  0.9644  0.2643  0.0000
 
              Baa    -0.0728   -38.832   -13.856   -12.953  0.6185  0.5989 -0.5086
     4 H(1)   Bbb     0.0038     2.053     0.733     0.685  0.7177 -0.6941  0.0555
              Bcc     0.0689    36.779    13.124    12.268  0.3198  0.3994  0.8592
 
              Baa    -0.0728   -38.832   -13.856   -12.953  0.6185  0.5989  0.5086
     5 H(1)   Bbb     0.0038     2.053     0.733     0.685  0.7177 -0.6941 -0.0555
              Bcc     0.0689    36.779    13.124    12.268 -0.3198 -0.3994  0.8592
 
              Baa    -0.0149    -2.001    -0.714    -0.668  0.7427 -0.6617  0.1027
     6 C(13)  Bbb    -0.0122    -1.640    -0.585    -0.547 -0.5617 -0.5321  0.6335
              Bcc     0.0271     3.642     1.299     1.215  0.3645  0.5282  0.7669
 
              Baa    -0.0149    -2.001    -0.714    -0.668  0.7427 -0.6617 -0.1027
     7 C(13)  Bbb    -0.0122    -1.640    -0.585    -0.547  0.5617  0.5321  0.6335
              Bcc     0.0271     3.642     1.299     1.215 -0.3645 -0.5282  0.7669
 
              Baa    -0.0075    -3.998    -1.427    -1.334  0.0658 -0.5277  0.8469
     8 H(1)   Bbb    -0.0046    -2.445    -0.872    -0.815  0.9923 -0.0545 -0.1110
              Bcc     0.0121     6.443     2.299     2.149  0.1048  0.8477  0.5201
 
              Baa    -0.0039    -2.090    -0.746    -0.697  0.1812 -0.5867  0.7893
     9 H(1)   Bbb    -0.0031    -1.647    -0.588    -0.549  0.8020 -0.3763 -0.4639
              Bcc     0.0070     3.737     1.333     1.246  0.5691  0.7171  0.4023
 
              Baa    -0.0055    -2.954    -1.054    -0.985  0.9155 -0.1996 -0.3493
    10 H(1)   Bbb    -0.0053    -2.836    -1.012    -0.946  0.0321  0.9017 -0.4311
              Bcc     0.0109     5.790     2.066     1.931  0.4010  0.3835  0.8320
 
              Baa    -0.0075    -3.998    -1.427    -1.334 -0.0658  0.5277  0.8469
    11 H(1)   Bbb    -0.0046    -2.445    -0.872    -0.815  0.9923 -0.0545  0.1110
              Bcc     0.0121     6.443     2.299     2.149  0.1048  0.8477 -0.5201
 
              Baa    -0.0039    -2.090    -0.746    -0.697 -0.1812  0.5867  0.7893
    12 H(1)   Bbb    -0.0031    -1.647    -0.588    -0.549  0.8020 -0.3763  0.4639
              Bcc     0.0070     3.737     1.333     1.246  0.5691  0.7171 -0.4023
 
              Baa    -0.0055    -2.954    -1.054    -0.985  0.9155 -0.1996  0.3493
    13 H(1)   Bbb    -0.0053    -2.836    -1.012    -0.946  0.0321  0.9017  0.4311
              Bcc     0.0109     5.790     2.066     1.931 -0.4010 -0.3835  0.8320
 

 ---------------------------------------------------------------------------------

 Calling FoFJK, ICntrl=      2127 FMM=F ISym2X=1 I1Cent= 0 IOpClX= 1 NMat=1 NMatS=1 NMatT=0.
 ***** Axes restored to original set *****
 -------------------------------------------------------------------
 Center     Atomic                   Forces (Hartrees/Bohr)
 Number     Number              X              Y              Z
 -------------------------------------------------------------------
      1        6           0.000377642   -0.000478374   -0.000000000
      2        6           0.000281100    0.001189892   -0.000000000
      3        1           0.000625194   -0.001914770   -0.000000000
      4        1          -0.001439099   -0.000153114   -0.001613849
      5        1          -0.001439099   -0.000153114    0.001613849
      6        6          -0.000490082   -0.000173306   -0.001264408
      7        6          -0.000490082   -0.000173306    0.001264408
      8        1          -0.000070267    0.001676083    0.000455302
      9        1           0.001760048   -0.000191729    0.000470145
     10        1          -0.000402567   -0.000556307    0.001688804
     11        1          -0.000070267    0.001676083   -0.000455302
     12        1           0.001760048   -0.000191729   -0.000470145
     13        1          -0.000402567   -0.000556307   -0.001688804
 -------------------------------------------------------------------
 Cartesian Forces:  Max     0.001914770 RMS     0.000993061

 GradGradGradGradGradGradGradGradGradGradGradGradGradGradGradGradGradGrad
 Berny optimization.
 FormGI is forming the generalized inverse of G from B-inverse, IUseBI=4.
 Internal  Forces:  Max     0.002692300 RMS     0.000911669
 Search for a local minimum.
 Step number   1 out of a maximum of   67
 All quantities printed in internal units (Hartrees-Bohrs-Radians)
 Mixed Optimization -- En-DIIS/RFO-DIIS
 Second derivative matrix not updated -- first step.
 ITU=  0
     Eigenvalues ---    0.00269   0.00269   0.00855   0.00925   0.03690
     Eigenvalues ---    0.04882   0.05417   0.05417   0.05454   0.05454
     Eigenvalues ---    0.05798   0.16000   0.16000   0.16000   0.16000
     Eigenvalues ---    0.16000   0.16000   0.16000   0.16000   0.17066
     Eigenvalues ---    0.18483   0.28735   0.28735   0.32986   0.33096
     Eigenvalues ---    0.34317   0.34317   0.34369   0.34369   0.34372
     Eigenvalues ---    0.34372   0.35438   0.35438
 RFO step:  Lambda=-1.63564318D-04 EMin= 2.68980257D-03
 Linear search not attempted -- first point.
 Iteration  1 RMS(Cart)=  0.00649867 RMS(Int)=  0.00002318
 Iteration  2 RMS(Cart)=  0.00002100 RMS(Int)=  0.00001374
 Iteration  3 RMS(Cart)=  0.00000000 RMS(Int)=  0.00001374
 ClnCor:  largest displacement from symmetrization is 1.67D-12 for atom    12.
 Variable       Old X    -DE/DX   Delta X   Delta X   Delta X     New X
                                 (Linear)    (Quad)   (Total)
    R1        2.82184  -0.00269   0.00000  -0.00813  -0.00813   2.81371
    R2        2.09076  -0.00200   0.00000  -0.00605  -0.00605   2.08471
    R3        2.90558  -0.00173   0.00000  -0.00603  -0.00603   2.89955
    R4        2.90558  -0.00173   0.00000  -0.00603  -0.00603   2.89955
    R5        2.04970  -0.00213   0.00000  -0.00600  -0.00600   2.04370
    R6        2.04970  -0.00213   0.00000  -0.00600  -0.00600   2.04370
    R7        2.06798  -0.00169   0.00000  -0.00493  -0.00493   2.06305
    R8        2.06707  -0.00177   0.00000  -0.00515  -0.00515   2.06191
    R9        2.06712  -0.00178   0.00000  -0.00516  -0.00516   2.06195
   R10        2.06798  -0.00169   0.00000  -0.00493  -0.00493   2.06305
   R11        2.06707  -0.00177   0.00000  -0.00515  -0.00515   2.06191
   R12        2.06712  -0.00178   0.00000  -0.00516  -0.00516   2.06195
    A1        1.88597  -0.00020   0.00000  -0.00422  -0.00422   1.88176
    A2        1.94988   0.00005   0.00000   0.00112   0.00111   1.95099
    A3        1.94988   0.00005   0.00000   0.00112   0.00111   1.95099
    A4        1.86404   0.00003   0.00000   0.00002   0.00002   1.86406
    A5        1.86404   0.00003   0.00000   0.00002   0.00002   1.86406
    A6        1.94482   0.00003   0.00000   0.00162   0.00162   1.94644
    A7        2.11043  -0.00024   0.00000  -0.00056  -0.00062   2.10981
    A8        2.11043  -0.00024   0.00000  -0.00056  -0.00062   2.10981
    A9        2.04983   0.00051   0.00000   0.00413   0.00408   2.05390
   A10        1.93509  -0.00038   0.00000  -0.00263  -0.00263   1.93245
   A11        1.94034  -0.00047   0.00000  -0.00299  -0.00299   1.93735
   A12        1.94289  -0.00036   0.00000  -0.00196  -0.00196   1.94093
   A13        1.88341   0.00040   0.00000   0.00195   0.00194   1.88535
   A14        1.87989   0.00040   0.00000   0.00253   0.00253   1.88242
   A15        1.87961   0.00049   0.00000   0.00354   0.00354   1.88314
   A16        1.93509  -0.00038   0.00000  -0.00263  -0.00263   1.93245
   A17        1.94034  -0.00047   0.00000  -0.00299  -0.00299   1.93735
   A18        1.94289  -0.00036   0.00000  -0.00196  -0.00196   1.94093
   A19        1.88341   0.00040   0.00000   0.00195   0.00194   1.88535
   A20        1.87989   0.00040   0.00000   0.00253   0.00253   1.88242
   A21        1.87961   0.00049   0.00000   0.00354   0.00354   1.88314
    D1        1.48402   0.00010   0.00000   0.01057   0.01057   1.49459
    D2       -1.48402  -0.00010   0.00000  -0.01057  -0.01057  -1.49459
    D3       -2.75358   0.00004   0.00000   0.00863   0.00863  -2.74495
    D4        0.56157  -0.00016   0.00000  -0.01251  -0.01251   0.54906
    D5       -0.56157   0.00016   0.00000   0.01251   0.01251  -0.54906
    D6        2.75358  -0.00004   0.00000  -0.00863  -0.00863   2.74495
    D7        1.10983   0.00016   0.00000   0.01098   0.01098   1.12081
    D8       -3.07819   0.00009   0.00000   0.00970   0.00970  -3.06848
    D9       -0.98259   0.00015   0.00000   0.01085   0.01085  -0.97174
   D10       -3.11459  -0.00004   0.00000   0.00651   0.00650  -3.10808
   D11       -1.01942  -0.00011   0.00000   0.00522   0.00522  -1.01420
   D12        1.07618  -0.00005   0.00000   0.00637   0.00637   1.08255
   D13       -1.08497   0.00002   0.00000   0.00739   0.00739  -1.07757
   D14        1.01020  -0.00005   0.00000   0.00611   0.00611   1.01631
   D15        3.10580   0.00001   0.00000   0.00726   0.00726   3.11306
   D16       -1.10983  -0.00016   0.00000  -0.01098  -0.01098  -1.12081
   D17        3.07819  -0.00009   0.00000  -0.00970  -0.00970   3.06848
   D18        0.98259  -0.00015   0.00000  -0.01085  -0.01085   0.97174
   D19        3.11459   0.00004   0.00000  -0.00651  -0.00650   3.10808
   D20        1.01942   0.00011   0.00000  -0.00522  -0.00522   1.01420
   D21       -1.07618   0.00005   0.00000  -0.00637  -0.00637  -1.08255
   D22        1.08497  -0.00002   0.00000  -0.00739  -0.00739   1.07757
   D23       -1.01020   0.00005   0.00000  -0.00611  -0.00611  -1.01631
   D24       -3.10580  -0.00001   0.00000  -0.00726  -0.00726  -3.11306
         Item               Value     Threshold  Converged?
 Maximum Force            0.002692     0.000450     NO 
 RMS     Force            0.000912     0.000300     NO 
 Maximum Displacement     0.015396     0.001800     NO 
 RMS     Displacement     0.006507     0.001200     NO 
 Predicted change in Energy=-8.200702D-05
 GradGradGradGradGradGradGradGradGradGradGradGradGradGradGradGradGradGrad

                          Input orientation:                          
 ---------------------------------------------------------------------
 Center     Atomic      Atomic             Coordinates (Angstroms)
 Number     Number       Type             X           Y           Z
 ---------------------------------------------------------------------
      1          6           0       -0.001398    0.351989    0.000000
      2          6           0        1.474440    0.154825    0.000000
      3          1           0       -0.196894    1.437711    0.000000
      4          1           0        2.034020    0.151358    0.925450
      5          1           0        2.034020    0.151358   -0.925450
      6          6           0       -0.651716   -0.215794   -1.268474
      7          6           0       -0.651716   -0.215794    1.268474
      8          1           0       -0.524981   -1.299100   -1.315797
      9          1           0       -1.721012    0.000261   -1.290009
     10          1           0       -0.204866    0.212875   -2.166890
     11          1           0       -0.524981   -1.299100    1.315797
     12          1           0       -1.721012    0.000261    1.290009
     13          1           0       -0.204866    0.212875    2.166890
 ---------------------------------------------------------------------
                    Distance matrix (angstroms):
                    1          2          3          4          5
     1  C    0.000000
     2  C    1.488950   0.000000
     3  H    1.103183   2.106930   0.000000
     4  H    2.244914   1.081480   2.736446   0.000000
     5  H    2.244914   1.081480   2.736446   1.850900   0.000000
     6  C    1.534378   2.503382   2.133065   3.487302   2.732333
     7  C    1.534378   2.503382   2.133065   2.732333   3.487302
     8  H    2.175213   2.800519   3.054357   3.698040   2.967269
     9  H    2.178280   3.449482   2.460349   4.362494   3.775711
    10  H    2.180864   2.742052   2.489117   3.818241   2.560775
    11  H    2.175213   2.800519   3.054357   2.967269   3.698040
    12  H    2.178280   3.449482   2.460349   3.775711   4.362494
    13  H    2.180864   2.742052   2.489117   2.560775   3.818241
                    6          7          8          9         10
     6  C    0.000000
     7  C    2.536948   0.000000
     8  H    1.091720   2.805008   0.000000
     9  H    1.091118   2.781350   1.766209   0.000000
    10  H    1.091139   3.490725   1.764341   1.764320   0.000000
    11  H    2.805008   1.091720   2.631594   3.147865   3.810204
    12  H    2.781350   1.091118   3.147865   2.580018   3.780748
    13  H    3.490725   1.091139   3.810204   3.780748   4.333781
                   11         12         13
    11  H    0.000000
    12  H    1.766209   0.000000
    13  H    1.764341   1.764320   0.000000
 Stoichiometry    C4H9(2)
 Framework group  CS[SG(C2H),X(C2H8)]
 Deg. of freedom    18
 Full point group                 CS      NOp   2
 Largest Abelian subgroup         CS      NOp   2
 Largest concise Abelian subgroup CS      NOp   2
                         Standard orientation:                         
 ---------------------------------------------------------------------
 Center     Atomic      Atomic             Coordinates (Angstroms)
 Number     Number       Type             X           Y           Z
 ---------------------------------------------------------------------
      1          6           0       -0.265359    0.230344   -0.000000
      2          6           0        0.853803    1.212408   -0.000000
      3          1           0       -1.211799    0.797145    0.000000
      4          1           0        1.224443    1.631654    0.925450
      5          1           0        1.224443    1.631654   -0.925450
      6          6           0       -0.265359   -0.632958   -1.268474
      7          6           0       -0.265359   -0.632958    1.268474
      8          1           0        0.634037   -1.249966   -1.315797
      9          1           0       -1.131374   -1.296352   -1.290009
     10          1           0       -0.294384   -0.014419   -2.166890
     11          1           0        0.634037   -1.249966    1.315797
     12          1           0       -1.131374   -1.296352    1.290009
     13          1           0       -0.294384   -0.014419    2.166890
 ---------------------------------------------------------------------
 Rotational constants (GHZ):           8.4563808           7.9200982           4.6256440
 Basis read from rwf:  (5D, 7F)
 There are   154 symmetry adapted cartesian basis functions of A'  symmetry.
 There are   121 symmetry adapted cartesian basis functions of A"  symmetry.
 There are   136 symmetry adapted basis functions of A'  symmetry.
 There are   110 symmetry adapted basis functions of A"  symmetry.
   246 basis functions,   366 primitive gaussians,   275 cartesian basis functions
    17 alpha electrons       16 beta electrons
       nuclear repulsion energy       126.5069177974 Hartrees.
 NAtoms=   13 NActive=   13 NUniq=    8 SFac= 2.64D+00 NAtFMM=   60 NAOKFM=F Big=F
 Integral buffers will be    131072 words long.
 Raffenetti 2 integral format.
 Two-electron integral symmetry is turned on.
 One-electron integrals computed using PRISM.
 NBasis=   246 RedAO= T EigKep=  4.00D-04  NBF=   136   110
 NBsUse=   246 1.00D-06 EigRej= -1.00D+00 NBFU=   136   110
 Initial guess from the checkpoint file:  "/wrk/irikura/Gau-2671.chk"
 B after Tr=     0.000000    0.000000    0.000000
         Rot=    1.000000    0.000000    0.000000    0.000059 Ang=   0.01 deg.
 Initial guess orbital symmetries:
 Alpha Orbitals:
       Occupied  (A') (A') (A") (A') (A') (A") (A') (A') (A') (A")
                 (A') (A") (A") (A') (A') (A") (A')
       Virtual   (A') (A") (A') (A') (A') (A") (A') (A") (A') (A")
                 (A') (A") (A") (A') (A') (A") (A') (A') (A") (A')
                 (A') (A') (A") (A') (A') (A") (A') (A") (A") (A')
                 (A') (A") (A') (A") (A") (A') (A') (A') (A") (A")
                 (A") (A') (A') (A") (A') (A") (A') (A") (A") (A')
                 (A') (A') (A") (A') (A") (A') (A') (A") (A") (A")
                 (A') (A') (A') (A") (A') (A') (A") (A") (A') (A')
                 (A') (A') (A') (A") (A') (A") (A") (A") (A') (A")
                 (A') (A') (A") (A') (A") (A") (A') (A") (A') (A')
                 (A") (A") (A') (A') (A') (A") (A') (A') (A") (A')
                 (A") (A') (A") (A") (A') (A') (A') (A") (A") (A')
                 (A') (A") (A') (A") (A') (A") (A') (A") (A') (A")
                 (A') (A") (A') (A') (A") (A") (A') (A') (A") (A')
                 (A") (A') (A") (A') (A") (A') (A") (A') (A") (A')
                 (A") (A') (A") (A") (A') (A") (A') (A') (A") (A")
                 (A') (A") (A') (A") (A") (A') (A') (A") (A') (A')
                 (A') (A") (A') (A") (A') (A') (A") (A") (A') (A")
                 (A') (A') (A") (A') (A") (A") (A') (A") (A') (A')
                 (A") (A') (A') (A') (A") (A") (A") (A') (A') (A")
                 (A') (A') (A") (A') (A') (A') (A") (A") (A") (A')
                 (A") (A") (A') (A') (A") (A') (A') (A") (A") (A")
                 (A') (A') (A') (A") (A') (A") (A') (A") (A") (A')
                 (A') (A") (A') (A') (A") (A") (A') (A") (A')
 Beta  Orbitals:
       Occupied  (A') (A') (A") (A') (A') (A") (A') (A') (A') (A")
                 (A') (A") (A") (A') (A') (A")
       Virtual   (A') (A') (A") (A') (A') (A') (A") (A') (A") (A')
                 (A") (A') (A") (A") (A') (A") (A') (A') (A') (A")
                 (A') (A') (A") (A') (A') (A') (A") (A") (A') (A")
                 (A') (A') (A") (A') (A") (A") (A') (A') (A') (A")
                 (A") (A") (A') (A') (A") (A') (A") (A') (A") (A")
                 (A') (A') (A") (A') (A') (A") (A') (A') (A") (A")
                 (A") (A') (A') (A') (A") (A') (A') (A") (A") (A')
                 (A') (A') (A') (A') (A") (A") (A') (A") (A") (A')
                 (A") (A') (A') (A") (A') (A") (A") (A') (A") (A')
                 (A') (A") (A") (A') (A') (A') (A") (A') (A') (A")
                 (A') (A") (A') (A") (A") (A') (A') (A') (A") (A")
                 (A') (A') (A") (A') (A") (A') (A") (A') (A") (A')
                 (A") (A') (A") (A') (A') (A") (A") (A') (A") (A')
                 (A') (A") (A') (A") (A") (A') (A') (A") (A') (A")
                 (A") (A') (A') (A") (A") (A') (A') (A") (A') (A")
                 (A") (A') (A") (A') (A") (A') (A") (A') (A") (A')
                 (A') (A') (A") (A') (A") (A') (A") (A') (A") (A')
                 (A") (A') (A') (A") (A') (A") (A") (A') (A") (A')
                 (A') (A") (A') (A') (A') (A") (A") (A") (A') (A')
                 (A") (A') (A') (A") (A') (A') (A') (A") (A") (A")
                 (A') (A") (A") (A') (A') (A') (A") (A') (A") (A")
                 (A") (A') (A') (A') (A") (A') (A") (A') (A") (A")
                 (A') (A") (A') (A') (A') (A") (A") (A') (A") (A')
 Initial guess <Sx>= 0.0000 <Sy>= 0.0000 <Sz>= 0.5000 <S**2>= 0.7539 S= 0.5019
 Keep R1 and R2 ints in memory in symmetry-blocked form, NReq=692523988.
 Requested convergence on RMS density matrix=1.00D-08 within 128 cycles.
 Requested convergence on MAX density matrix=1.00D-06.
 Requested convergence on             energy=1.00D-06.
 No special actions if energy rises.
 SCF Done:  E(UB3LYP) =  -157.853217721     A.U. after    9 cycles
            NFock=  9  Conv=0.24D-08     -V/T= 2.0047
 <Sx>= 0.0000 <Sy>= 0.0000 <Sz>= 0.5000 <S**2>= 0.7539 S= 0.5019
 <L.S>=  0.00000000000    
 Annihilation of the first spin contaminant:
 S**2 before annihilation     0.7539,   after     0.7500
[...]
 ! R5    R(2,4)                  1.0814         -DE/DX =    0.0                 !
 ! R6    R(2,5)                  1.0814         -DE/DX =    0.0                 !
 ! R7    R(6,8)                  1.0917         -DE/DX =    0.0                 !
 ! R8    R(6,9)                  1.091          -DE/DX =    0.0                 !
 ! R9    R(6,10)                 1.091          -DE/DX =    0.0                 !
 ! R10   R(7,11)                 1.0917         -DE/DX =    0.0                 !
 ! R11   R(7,12)                 1.091          -DE/DX =    0.0                 !
 ! R12   R(7,13)                 1.091          -DE/DX =    0.0                 !
 ! A1    A(2,1,3)              107.7832         -DE/DX =    0.0                 !
 ! A2    A(2,1,6)              111.842          -DE/DX =    0.0                 !
 ! A3    A(2,1,7)              111.842          -DE/DX =    0.0                 !
 ! A4    A(3,1,6)              106.7534         -DE/DX =    0.0                 !
 ! A5    A(3,1,7)              106.7534         -DE/DX =    0.0                 !
 ! A6    A(6,1,7)              111.525          -DE/DX =    0.0                 !
 ! A7    A(1,2,4)              120.8759         -DE/DX =    0.0                 !
 ! A8    A(1,2,5)              120.8759         -DE/DX =    0.0                 !
 ! A9    A(4,2,5)              117.7296         -DE/DX =    0.0                 !
 ! A10   A(1,6,8)              110.6985         -DE/DX =    0.0                 !
 ! A11   A(1,6,9)              111.0004         -DE/DX =    0.0                 !
 ! A12   A(1,6,10)             111.1903         -DE/DX =    0.0                 !
 ! A13   A(8,6,9)              108.0259         -DE/DX =    0.0                 !
 ! A14   A(8,6,10)             107.8693         -DE/DX =    0.0                 !
 ! A15   A(9,6,10)             107.9218         -DE/DX =    0.0                 !
 ! A16   A(1,7,11)             110.6985         -DE/DX =    0.0                 !
 ! A17   A(1,7,12)             111.0004         -DE/DX =    0.0                 !
 ! A18   A(1,7,13)             111.1903         -DE/DX =    0.0                 !
 ! A19   A(11,7,12)            108.0259         -DE/DX =    0.0                 !
 ! A20   A(11,7,13)            107.8693         -DE/DX =    0.0                 !
 ! A21   A(12,7,13)            107.9218         -DE/DX =    0.0                 !
 ! D1    D(3,1,2,4)             85.7758         -DE/DX =    0.0                 !
 ! D2    D(3,1,2,5)            -85.7758         -DE/DX =    0.0                 !
 ! D3    D(6,1,2,4)           -157.1792         -DE/DX =    0.0                 !
 ! D4    D(6,1,2,5)             31.2692         -DE/DX =    0.0                 !
 ! D5    D(7,1,2,4)            -31.2692         -DE/DX =    0.0                 !
 ! D6    D(7,1,2,5)            157.1792         -DE/DX =    0.0                 !
 ! D7    D(2,1,6,8)             64.2642         -DE/DX =    0.0                 !
 ! D8    D(2,1,6,9)           -175.7771         -DE/DX =    0.0                 !
 ! D9    D(2,1,6,10)           -55.6225         -DE/DX =    0.0                 !
 ! D10   D(3,1,6,8)           -178.072          -DE/DX =    0.0                 !
 ! D11   D(3,1,6,9)            -58.1133         -DE/DX =    0.0                 !
 ! D12   D(3,1,6,10)            62.0413         -DE/DX =    0.0                 !
 ! D13   D(7,1,6,8)            -61.8193         -DE/DX =    0.0                 !
 ! D14   D(7,1,6,9)             58.1394         -DE/DX =    0.0                 !
 ! D15   D(7,1,6,10)           178.294          -DE/DX =    0.0                 !
 ! D16   D(2,1,7,11)           -64.2642         -DE/DX =    0.0                 !
 ! D17   D(2,1,7,12)           175.7771         -DE/DX =    0.0                 !
 ! D18   D(2,1,7,13)            55.6225         -DE/DX =    0.0                 !
 ! D19   D(3,1,7,11)           178.072          -DE/DX =    0.0                 !
 ! D20   D(3,1,7,12)            58.1133         -DE/DX =    0.0                 !
 ! D21   D(3,1,7,13)           -62.0413         -DE/DX =    0.0                 !
 ! D22   D(6,1,7,11)            61.8193         -DE/DX =    0.0                 !
 ! D23   D(6,1,7,12)           -58.1394         -DE/DX =    0.0                 !
 ! D24   D(6,1,7,13)          -178.294          -DE/DX =    0.0                 !
 --------------------------------------------------------------------------------
 GradGradGradGradGradGradGradGradGradGradGradGradGradGradGradGradGradGrad


 ----------------------------------------------------------------------

 Electric dipole moment (input orientation):
 (Debye = 10**-18 statcoulomb cm , SI units = C m)
                  (au)            (Debye)         (10**-30 SI)
   Tot        0.130813D+00      0.332494D+00      0.110908D+01
   x         -0.941844D-01     -0.239393D+00     -0.798529D+00
   y          0.907821D-01      0.230745D+00      0.769683D+00
   z          0.000000D+00      0.000000D+00      0.000000D+00

 Dipole polarizability, Alpha (input orientation).
 (esu units = cm**3 , SI units = C**2 m**2 J**-1)
 Alpha(0;0):
               (au)            (10**-24 esu)      (10**-40 SI)
   iso        0.513923D+02      0.761556D+01      0.847345D+01
   aniso      0.872653D+01      0.129314D+01      0.143881D+01
   xx         0.548970D+02      0.813490D+01      0.905130D+01
   yx         0.607599D+00      0.900369D-01      0.100180D+00
   yy         0.456647D+02      0.676681D+01      0.752910D+01
   zx         0.000000D+00      0.000000D+00      0.000000D+00
   zy         0.000000D+00      0.000000D+00      0.000000D+00
   zz         0.536153D+02      0.794496D+01      0.883997D+01

 ----------------------------------------------------------------------

 Dipole orientation:
     6          0.33105603          0.34346345          0.46205824
     6          1.49003559          1.54587959         -1.80283125
     1          1.17774540          1.22188530          2.15287385
     1          3.25348257          0.85496543         -2.57020756
     1          0.73473548          3.28272425         -2.57020756
     6         -2.52364971          0.83706883          0.60410483
     6          0.92931348         -2.49115807          0.60410483
     1         -3.49573196         -0.04168935         -0.98918421
     1         -3.32121779          0.06610197          2.34198167
     1         -2.93378871          2.85698042          0.55934778
     1          0.08689951         -3.49490034         -0.98918421
     1          0.18819990         -3.31654004          2.34198167
     1          2.96294209         -2.82673441          0.55934778

 Electric dipole moment (dipole orientation):
 (Debye = 10**-18 statcoulomb cm , SI units = C m)
                  (au)            (Debye)         (10**-30 SI)
   Tot        0.130813D+00      0.332494D+00      0.110908D+01
   x          0.000000D+00      0.000000D+00      0.000000D+00
   y          0.000000D+00      0.000000D+00      0.000000D+00
   z          0.130813D+00      0.332494D+00      0.110908D+01

 Dipole polarizability, Alpha (dipole orientation).
 (esu units = cm**3 , SI units = C**2 m**2 J**-1)
 Alpha(0;0):
               (au)            (10**-24 esu)      (10**-40 SI)
   iso        0.513923D+02      0.761556D+01      0.847345D+01
   aniso      0.872653D+01      0.129314D+01      0.143881D+01
   xx         0.522201D+02      0.773821D+01      0.860992D+01
   yx        -0.144751D+01     -0.214499D+00     -0.238663D+00
   yy         0.521135D+02      0.772243D+01      0.859236D+01
   zx        -0.321687D+01     -0.476690D+00     -0.530389D+00
   zy        -0.333743D+01     -0.494556D+00     -0.550268D+00
   zz         0.498434D+02      0.738604D+01      0.821807D+01

 ----------------------------------------------------------------------
 1\1\GINC-GAMBA\Freq\UB3LYP\Gen\C4H9(2)\IRIKURA\17-Jun-2022\0\\#N Geom=
 AllCheck Guess=TCheck SCRF=Check GenChk UB3LYP/ChkBas Freq\\iso-butyl,
  B3LYP/pcseg-2\\0,2\C,-0.0008583885,0.3514391803,0.\C,1.4753774724,0.1
 559729626,0.\H,-0.1970159446,1.437214702,0.\H,2.0344945319,0.150903172
 6,0.9256102023\H,2.0344945319,0.1509031726,-0.9256102023\C,-0.65200911
 21,-0.2158018603,-1.2689237289\C,-0.6520091121,-0.2158018603,1.2689237
 289\H,-0.5250558071,-1.2990090955,-1.3165753104\H,-1.7212635031,0.0000
 39876,-1.2896700991\H,-0.2053996794,0.2134174848,-2.1669798457\H,-0.52
 50558071,-1.2990090955,1.3165753104\H,-1.7212635031,0.000039876,1.2896
 700991\H,-0.2053996794,0.2134174848,2.1669798457\\Version=ES64L-G16Rev
 B.01\State=2-A'\HF=-157.853219\S2=0.753892\S2-1=0.\S2A=0.75001\RMSD=2.
 447e-09\RMSF=3.000e-05\ZeroPoint=0.1161301\Thermal=0.1222048\Dipole=-0
 .0941844,0.0907821,0.\DipoleDeriv=0.0902713,0.0155145,0.,0.0565918,0.1
 631173,0.,0.,0.,0.1076506,0.0507064,-0.0410231,0.,-0.0874935,-0.356659
 1,0.,0.,0.,0.0827661,-0.0343322,0.0418087,0.,0.0437901,-0.1738129,0.,0
 .,0.,0.0088628,-0.0307168,0.0000162,-0.04489,0.0083469,0.1386802,-0.00
 34107,-0.0877665,-0.0082283,-0.0719984,-0.0307168,0.0000162,0.04489,0.
 0083469,0.1386802,0.0034107,0.0877665,0.0082283,-0.0719984,0.0725323,-
 0.0291547,-0.0218503,-0.0174658,0.1144407,-0.0064643,0.0032714,-0.0302
 105,0.0228553,0.0725323,-0.0291547,0.0218503,-0.0174658,0.1144407,0.00
 64643,-0.0032713,0.0302105,0.0228553,0.0534754,0.0434669,-0.0108477,-0
 .0042654,-0.1451342,-0.0431996,-0.0219597,0.025623,0.0366925,-0.170470
 9,0.0245587,-0.0444729,0.0489864,0.0512279,-0.0109605,0.0076755,-0.020
 7251,0.0384834,0.0218571,-0.0470371,0.0894747,-0.0420464,0.0244629,0.0
 731954,0.0462006,0.0449345,-0.1256726,0.0534754,0.0434669,0.0108477,-0
 .0042654,-0.1451342,0.0431995,0.0219597,-0.025623,0.0366925,-0.1704708
 ,0.0245587,0.0444729,0.0489864,0.0512279,0.0109605,-0.0076755,0.020725
 1,0.0384834,0.0218571,-0.0470371,-0.0894747,-0.0420464,0.0244629,-0.07
 31954,-0.0462006,-0.0449345,-0.1256725\Polar=54.8970172,0.607599,45.66
 47237,0.,0.,53.6152786\Quadrupole=-0.0204283,-0.3432742,0.3637024,-0.0
 463397,0.,0.\PG=CS [SG(C2H1),X(C2H8)]\NImag=0\\0.47213876,-0.00761364,
 0.49136374,0.,0.,0.45215685,-0.21095168,0.01729206,0.,0.52868682,0.024
 17723,-0.04751081,0.,-0.04062106,0.06738740,0.,0.,-0.08549002,0.,0.,0.
 63266541,-0.04692564,0.04828715,0.,-0.01722683,0.02870587,0.,0.0603991
 9,0.03026394,-0.25964715,0.,0.01164908,-0.00293931,0.,-0.04325207,0.29
 095636,0.,0.,-0.04109282,0.,0.,0.00120139,0.,0.,0.05327592,-0.00761406
 ,-0.00251616,-0.02366638,-0.12920867,0.00502125,-0.12459303,-0.0006249
 2,0.00069351,-0.00013932,0.13144326,0.00153567,0.00400321,0.00644656,0
 .00363018,-0.01125482,-0.00227794,-0.00088382,-0.00064226,-0.00085922,
 -0.00430611,0.00441638,0.00366932,-0.00093388,0.00221900,-0.12582023,0
 .00203783,-0.26823750,-0.00009572,-0.00018487,-0.00009981,0.13549570,-
 0.00123979,0.27751990,-0.00761406,-0.00251616,0.02366639,-0.12920868,0
 .00502125,0.12459303,-0.00062492,0.00069351,0.00013932,0.00965330,-0.0
 0008960,-0.01358937,0.13144326,0.00153567,0.00400320,-0.00644656,0.003
 63018,-0.01125482,0.00227794,-0.00088382,-0.00064226,0.00085922,-0.000
 08960,0.00338130,-0.00016659,-0.00430611,0.00441638,-0.00366933,0.0009
 3388,0.00221900,0.12582023,-0.00203783,-0.26823750,0.00009572,0.000184
 87,-0.00009981,0.01358937,0.00016659,-0.01429030,-0.13549570,0.0012397
 9,0.27751990,-0.09188252,-0.02100182,-0.03148319,-0.02334627,-0.009858
 18,-0.03161610,0.00239552,0.00134509,0.00225912,-0.00506114,0.00033653
 ,-0.00009562,0.00182884,-0.00006201,-0.00061164,0.55011415,-0.01780322
 ,-0.08959952,-0.03162678,0.00163443,0.00153239,0.00439316,-0.01496267,
 -0.01492921,-0.02963599,0.00203935,-0.00024459,0.00067775,-0.00008608,
 0.00037203,-0.00019457,-0.01729911,0.54586838,-0.02759188,-0.03056581,
 -0.13930529,-0.00995495,0.00023613,-0.00286237,-0.00229506,-0.00223603
 ,-0.00448232,0.00145386,-0.00153162,0.00065357,0.00185827,0.00084093,0
 .00101704,-0.04234978,-0.03698660,0.48954856,-0.09188253,-0.02100182,0
 .03148319,-0.02334627,-0.00985818,0.03161610,0.00239552,0.00134509,-0.
 00225912,0.00182884,-0.00006201,0.00061164,-0.00506114,0.00033653,0.00
 009562,0.00645487,0.00603466,-0.01026111,0.55011415,-0.01780322,-0.089
 59952,0.03162678,0.00163443,0.00153239,-0.00439316,-0.01496267,-0.0149
 2921,0.02963599,-0.00008608,0.00037203,0.00019457,0.00203935,-0.000244
 59,-0.00067775,0.00603466,0.00543354,-0.00987519,-0.01729911,0.5458683
 8,0.02759189,0.03056581,-0.13930529,0.00995494,-0.00023612,-0.00286237
 ,0.00229506,0.00223603,-0.00448232,-0.00185827,-0.00084093,0.00101704,
 -0.00145386,0.00153162,0.00065357,0.01026111,0.00987519,-0.03209377,0.
 04234978,0.03698660,0.48954856,0.00071042,-0.01494121,-0.00080045,0.00
 139918,-0.00050991,0.00020639,-0.00073534,-0.00129732,-0.00245907,0.00
 009653,0.00008841,0.00009253,-0.00018122,-0.00014362,0.00016277,-0.051
 48341,0.03251153,0.00151735,0.00001238,0.00037940,0.00074275,0.0515416
 2,0.00050512,-0.01280995,-0.00110120,0.00100626,0.00095287,0.00045305,
 -0.00154811,0.00027068,-0.00238370,-0.00019094,0.00007574,0.00003038,-
 0.00033140,-0.00029602,0.00003160,0.03175955,-0.30062194,-0.00725668,0
 .00018272,0.00078638,0.00071793,-0.03415792,0.32834162,0.00244276,-0.0
 2782945,-0.00253263,0.00178527,0.00026440,0.00091407,-0.00265441,-0.00
 260990,-0.00435953,0.00008166,0.00004169,0.00001522,-0.00018062,0.0000
 1351,0.00004679,0.00151251,-0.00646601,-0.04681917,0.00041746,-0.00124
 096,0.00192001,0.00084188,0.01042483,0.05037954,-0.01321807,0.00272628
 ,0.00104002,-0.00027907,-0.00114097,-0.00332548,0.00055888,-0.00046078
 ,0.00027231,-0.00070422,-0.00014540,-0.00009946,0.00038064,0.00007039,
 0.00002916,-0.29544484,0.05202360,-0.00195738,0.00037140,0.00027399,0.
 00108541,-0.00279580,0.00083276,0.00023171,0.32249271,-0.01368481,0.00
 172634,0.00008745,-0.00064378,0.00016249,-0.00262458,-0.00009895,0.000
 39709,0.00081219,-0.00076363,0.00038626,-0.00010837,0.00010400,-0.0002
 6407,0.00003494,0.05314067,-0.05868544,0.00066946,0.00022764,0.0000096
 9,0.00050473,0.03193791,-0.00539917,-0.00014952,-0.05682796,0.05921638
 ,-0.02727517,0.00549001,-0.00107560,-0.00115820,-0.00156474,-0.0048763
 1,0.00087853,0.00039083,0.00129616,-0.00156584,0.00021209,0.00021743,-
 0.00019995,-0.00013501,0.00015656,-0.00023736,0.00044501,-0.04701691,-
 0.00110140,0.00040895,0.00164604,0.00064125,0.00017592,-0.00094821,0.0
 0338817,0.00143827,0.04998881,0.00487352,0.00675012,-0.01205389,0.0011
 8069,0.00035680,-0.00078341,0.00028250,0.00038902,0.00076882,0.0001528
 1,-0.00002347,0.00019379,-0.00016115,-0.00000716,0.00017065,-0.0927842
 2,-0.04381633,0.08937969,-0.00117476,-0.00092955,-0.00202916,0.0013182
 5,0.00176278,-0.00438830,-0.01236708,-0.01351942,0.02578822,0.09777414
 ,0.00603347,0.00457704,-0.01144380,0.00021286,0.00013843,0.00036117,0.
 00062307,0.00071874,0.00042270,0.00018138,-0.00008453,-0.00008331,0.00
 024441,0.00015137,0.00015718,-0.04364385,-0.08937005,0.08612482,-0.001
 16189,-0.00055168,-0.00180326,-0.01421212,-0.01210030,0.02638444,0.002
 72535,0.00239034,-0.00665588,0.04917142,0.09330066,0.01146623,0.011830
 18,-0.02209249,0.00189458,-0.00009146,0.00087372,0.00042860,-0.0003220
 2,0.00095326,-0.00016428,-0.00002691,0.00034877,-0.00098598,0.00021203
 ,0.00043335,0.08783222,0.08506468,-0.21856386,-0.00384480,-0.00362216,
 -0.00364151,-0.00108037,-0.00027554,0.00137322,-0.00001390,-0.00084219
 ,0.00079550,-0.09617125,-0.09253405,0.24051649,0.00071042,-0.01494121,
 0.00080045,0.00139918,-0.00050991,-0.00020639,-0.00073534,-0.00129732,
 0.00245907,-0.00018122,-0.00014362,-0.00016277,0.00009653,0.00008841,-
 0.00009253,0.00001238,0.00037940,-0.00074275,-0.05148341,0.03251153,-0
 .00151735,0.00026298,0.00025698,-0.00004931,-0.00002443,0.00015703,0.0
 0003692,-0.00012116,-0.00006916,-0.00012258,0.05154162,0.00050512,-0.0
 1280995,0.00110120,0.00100626,0.00095287,-0.00045305,-0.00154811,0.000
 27068,0.00238370,-0.00033140,-0.00029602,-0.00003160,-0.00019094,0.000
 07574,-0.00003038,0.00018272,0.00078638,-0.00071793,0.03175955,-0.3006
 2194,0.00725668,0.00025698,0.00047663,0.00075835,0.00000490,-0.0000334
 2,0.00004844,-0.00008270,0.00035686,0.00000979,-0.03415792,0.32834162,
 -0.00244276,0.02782945,-0.00253263,-0.00178527,-0.00026440,0.00091407,
 0.00265441,0.00260990,-0.00435953,0.00018062,-0.00001351,0.00004679,-0
 .00008166,-0.00004169,0.00001522,-0.00041746,0.00124096,0.00192001,-0.
 00151251,0.00646601,-0.04681917,0.00004931,-0.00075835,-0.00016850,-0.
 00005027,-0.00003463,-0.00013160,0.00009088,-0.00037398,0.00031079,-0.
 00084188,-0.01042483,0.05037954,-0.01321807,0.00272628,-0.00104002,-0.
 00027907,-0.00114097,0.00332548,0.00055888,-0.00046078,-0.00027231,0.0
 0038064,0.00007039,-0.00002916,-0.00070422,-0.00014540,0.00009946,0.00
 037140,0.00027399,-0.00108541,-0.29544484,0.05202360,0.00195738,-0.000
 02443,0.00000490,0.00005027,0.00068979,0.00009066,0.00057248,0.0003400
 8,-0.00017282,0.00002782,-0.00279580,0.00083276,-0.00023171,0.32249271
 ,-0.01368481,0.00172634,-0.00008745,-0.00064378,0.00016249,0.00262458,
 -0.00009895,0.00039709,-0.00081219,0.00010400,-0.00026407,-0.00003494,
 -0.00076363,0.00038626,0.00010837,0.00022764,0.00000969,-0.00050473,0.
 05314067,-0.05868544,-0.00066946,0.00015703,-0.00003342,0.00003463,0.0
 0009066,0.00023652,-0.00010257,-0.00011936,-0.00014300,-0.00010969,0.0
 3193791,-0.00539917,0.00014952,-0.05682796,0.05921638,0.02727516,-0.00
 549001,-0.00107560,0.00115820,0.00156473,-0.00487631,-0.00087853,-0.00
 039083,0.00129616,0.00019995,0.00013501,0.00015656,0.00156584,-0.00021
 209,0.00021743,0.00110140,-0.00040895,0.00164604,0.00023736,-0.0004450
 1,-0.04701691,-0.00003692,-0.00004844,-0.00013160,-0.00057248,0.000102
 57,-0.00037269,-0.00023233,0.00015132,0.00032083,-0.00064125,-0.000175
 92,-0.00094821,-0.00338817,-0.00143827,0.04998881,0.00487352,0.0067501
 2,0.01205389,0.00118069,0.00035680,0.00078341,0.00028250,0.00038902,-0
 .00076882,-0.00016115,-0.00000716,-0.00017065,0.00015281,-0.00002347,-
 0.00019379,-0.00117476,-0.00092955,0.00202916,-0.09278422,-0.04381633,
 -0.08937969,-0.00012116,-0.00008270,-0.00009088,0.00034008,-0.00011936
 ,0.00023233,0.00068639,0.00006786,0.00073371,0.00131825,0.00176278,0.0
 0438830,-0.01236708,-0.01351942,-0.02578822,0.09777414,0.00603347,0.00
 457704,0.01144380,0.00021287,0.00013843,-0.00036117,0.00062307,0.00071
 874,-0.00042270,0.00024441,0.00015137,-0.00015718,0.00018138,-0.000084
 53,0.00008331,-0.00116189,-0.00055168,0.00180326,-0.04364385,-0.089370
 05,-0.08612482,-0.00006916,0.00035686,0.00037398,-0.00017282,-0.000143
 00,-0.00015132,0.00006786,0.00061613,0.00070734,-0.01421212,-0.0121003
 0,-0.02638444,0.00272535,0.00239034,0.00665588,0.04917142,0.09330066,-
 0.01146623,-0.01183018,-0.02209249,-0.00189457,0.00009146,0.00087372,-
 0.00042860,0.00032202,0.00095326,0.00098598,-0.00021203,0.00043335,0.0
 0016428,0.00002691,0.00034877,0.00384480,0.00362216,-0.00364151,-0.087
 83222,-0.08506468,-0.21856386,0.00012258,-0.00000979,0.00031079,-0.000
 02782,0.00010969,0.00032083,-0.00073371,-0.00070734,-0.00162806,0.0010
 8037,0.00027554,0.00137322,0.00001390,0.00084219,0.00079550,0.09617125
 ,0.09253405,0.24051649\\-0.00010421,-0.00001501,0.,-0.00000126,-0.0000
 0596,0.,0.00002252,-0.00005906,0.,0.00002772,-0.00000140,-0.00002467,0
 .00002772,-0.00000140,0.00002467,0.00004026,0.00002987,0.00006066,0.00
 004026,0.00002987,-0.00006066,-0.00000417,0.00003042,-0.00000252,-0.00
 000217,-0.00000763,-0.00002925,-0.00002016,-0.00001125,-0.00000496,-0.
 00000417,0.00003042,0.00000252,-0.00000217,-0.00000763,0.00002925,-0.0
 0002016,-0.00001125,0.00000496\\\@


 ORIGINALITY CONSISTS NOT IN SAYING WHAT NO ONE HAS EVER SAID BEFORE, 
 BUT IN SAYING WHAT YOU THINK YOUR SELF.

                                    -- JAMES F. STEPHEN
 Job cpu time:       0 days  0 hours 39 minutes 10.2 seconds.
 Elapsed time:       0 days  0 hours  3 minutes 16.4 seconds.
 File lengths (MBytes):  RWF=     84 Int=      0 D2E=      0 Chk=      8 Scr=      1
 Normal termination of Gaussian 16 at Fri Jun 17 13:53:17 2022.
