 Entering Gaussian System, Link 0=g16
 AtFile(1): pcseg2.gbs
            -H     0
            S   4   1.00
                  0.754732D+02           0.427821D-02
                  0.113575D+02           0.328672D-01
                  0.260081D+01           0.159578D+00
                  0.735503D+00           0.500000D+00
            S   1   1.00
                  0.231761D+00           1.0000000
            S   1   1.00
                  0.741675D-01           1.0000000
            P   1   1.00
                  0.160000D+01           1.0000000
            P   1   1.00
                  0.450000D+00           1.0000000
            D   1   1.00
                  0.125000D+01           1.0000000
            ****
            -C     0
            S   7   1.00
                  0.731999D+04           0.695369D-03
                  0.109818D+04           0.537138D-02
                  0.250014D+03           0.274734D-01
                  0.707586D+02           0.105078D+00
                  0.228595D+02           0.291262D+00
                  0.803936D+01           0.500000D+00
                  0.289309D+01           0.362224D+00
            S   2   1.00
                  0.521640D+01          -0.957844D-01
                  0.556124D+00           0.500000D+00
            S   1   1.00
                  0.228813D+00           1.0000000
            S   1   1.00
                  0.936338D-01           1.0000000
            P   4   1.00
                  0.339855D+02           0.818395D-02
                  0.772957D+01           0.586921D-01
                  0.224954D+01           0.222514D+00
                  0.767681D+00           0.500000D+00
            P   1   1.00
                  0.263283D+00           1.0000000
            P   1   1.00
                  0.848744D-01           1.0000000
            D   1   1.00
                  0.140000D+01           1.0000000
            D   1   1.00
                  0.450000D+00           1.0000000
            F   1   1.00
                  0.950000D+00           1.0000000
            ****
            -O     0
            S   7   1.00
                  0.135887D+05           0.665492D-03
                  0.203847D+04           0.514222D-02
                  0.464041D+03           0.263472D-01
                  0.131339D+03           0.101500D+00
                  0.425340D+02           0.285877D+00
                  0.150429D+02           0.500000D+00
                  0.546616D+01           0.368211D+00
            S   2   1.00
                  0.100915D+02          -0.100084D+00
                  0.110429D+01           0.500000D+00
            S   1   1.00
                  0.448082D+00           1.0000000
            S   1   1.00
                  0.175325D+00           1.0000000
            P   4   1.00
                  0.608220D+02           0.908253D-02
                  0.140332D+02           0.645878D-01
                  0.418244D+01           0.241502D+00
                  0.142490D+01           0.500000D+00
            P   1   1.00
                  0.478741D+00           1.0000000
            P   1   1.00
                  0.146257D+00           1.0000000
            D   1   1.00
                  0.220000D+01           1.0000000
            D   1   1.00
                  0.650000D+00           1.0000000
            F   1   1.00
                  0.110000D+01           1.0000000
            ****
            -N     0
            S   7   1.00
                  0.101643D+05           0.682757D-03
                  0.152481D+04           0.527488D-02
                  0.347119D+03           0.270037D-01
                  0.982389D+02           0.103673D+00
                  0.317799D+02           0.289575D+00
                  0.112240D+02           0.500000D+00
                  0.406611D+01           0.364621D+00
            S   2   1.00
                  0.747898D+01          -0.975681D-01
                  0.805040D+00           0.500000D+00
            S   1   1.00
                  0.324626D+00           1.0000000
            S   1   1.00
                  0.128132D+00           1.0000000
            P   4   1.00
                  0.482704D+02           0.829547D-02
                  0.110815D+02           0.596223D-01
                  0.326643D+01           0.227889D+00
                  0.111680D+01           0.500000D+00
            P   1   1.00
                  0.382049D+00           1.0000000
            P   1   1.00
                  0.121222D+00           1.0000000
            D   1   1.00
                  0.180000D+01           1.0000000
            D   1   1.00
                  0.550000D+00           1.0000000
            F   1   1.00
                  0.102000D+01           1.0000000
            ****
            -F     0
            S   7   1.00
                  0.174507D+05           0.655972D-03
                  0.261768D+04           0.506944D-02
                  0.595857D+03           0.259899D-01
                  0.168651D+03           0.100353D+00
                  0.546654D+02           0.284095D+00
                  0.193717D+02           0.500000D+00
                  0.706202D+01           0.370721D+00
            S   2   1.00
                  0.131197D+02          -0.101997D+00
                  0.145046D+01           0.500000D+00
            S   1   1.00
                  0.588255D+00           1.0000000
            S   1   1.00
                  0.227960D+00           1.0000000
            P   4   1.00
                  0.779407D+02           0.931135D-02
                  0.180425D+02           0.663964D-01
                  0.542342D+01           0.246386D+00
                  0.184876D+01           0.500000D+00
            P   1   1.00
                  0.617455D+00           1.0000000
            P   1   1.00
                  0.185496D+00           1.0000000
            D   1   1.00
                  0.280000D+01           1.0000000
            D   1   1.00
                  0.800000D+00           1.0000000
            F   1   1.00
                  0.120000D+01           1.0000000
            ****
            -Cl     0
            S   8   1.00
                  0.154272D+06           0.222473D-03
                  0.231232D+05           0.172590D-02
                  0.526257D+04           0.899286D-02
                  0.148995D+04           0.367724D-01
                  0.485417D+03           0.121446D+00
                  0.174634D+03           0.304148D+00
                  0.672393D+02           0.500000D+00
                  0.265780D+02           0.360252D+00
            S   3   1.00
                  0.131826D+03          -0.531330D-01
                  0.400703D+02          -0.233346D+00
                  0.789448D+01           0.500000D+00
            S   2   1.00
                  0.427711D+01           0.500000D+00
                  0.196233D+01           0.370517D+00
            S   1   1.00
                  0.520793D+00           1.0000000
            S   1   1.00
                  0.181633D+00           1.0000000
            P   7   1.00
                  0.124440D+04           0.988206D-03
                  0.295109D+03           0.829674D-02
                  0.947224D+02           0.430906D-01
                  0.352588D+02           0.148443D+00
                  0.144211D+02           0.344744D+00
                  0.610371D+01           0.500000D+00
                  0.258886D+01           0.348278D+00
            P   2   1.00
                  0.109447D+02          -0.196768D-01
                  0.104413D+01           0.500000D+00
            P   1   1.00
                  0.376184D+00           1.0000000
            P   1   1.00
                  0.120613D+00           1.0000000
            D   1   1.00
                  0.231000D+01           1.0000000
            D   1   1.00
                  0.520000D+00           1.0000000
            F   1   1.00
                  0.720000D+00           1.0000000
            ****
            -S     0
            S   8   1.00
                  0.134700D+06           0.226231D-03
                  0.201904D+05           0.175488D-02
                  0.459528D+04           0.914190D-02
                  0.130109D+04           0.373551D-01
                  0.423902D+03           0.123121D+00
                  0.152485D+03           0.306801D+00
                  0.586925D+02           0.500000D+00
                  0.231461D+02           0.354358D+00
            S   3   1.00
                  0.116327D+03          -0.491772D-01
                  0.352841D+02          -0.215962D+00
                  0.677831D+01           0.500000D+00
            S   2   1.00
                  0.360404D+01           0.500000D+00
                  0.164871D+01           0.366278D+00
            S   1   1.00
                  0.421821D+00           1.0000000
            S   1   1.00
                  0.147554D+00           1.0000000
            P   7   1.00
                  0.104863D+04           0.105273D-02
                  0.248717D+03           0.879338D-02
                  0.797887D+02           0.453358D-01
                  0.296023D+02           0.154476D+00
                  0.120627D+02           0.352366D+00
                  0.507628D+01           0.500000D+00
                  0.213375D+01           0.346429D+00
            P   2   1.00
                  0.928958D+01          -0.185932D-01
                  0.837819D+00           0.500000D+00
            P   1   1.00
                  0.301495D+00           1.0000000
            P   1   1.00
                  0.974740D-01           1.0000000
            D   1   1.00
                  0.210000D+01           1.0000000
            D   1   1.00
                  0.480000D+00           1.0000000
            F   1   1.00
                  0.660000D+00           1.0000000
            ****
            -Br     0
            S    10   1.00
                  0.233625D+07           0.532336D-04
                  0.349961D+06           0.413715D-03
                  0.796444D+05           0.217123D-02
                  0.225555D+05           0.910109D-02
                  0.735546D+04           0.323789D-01
                  0.265352D+04           0.988755D-01
                  0.103517D+04           0.248138D+00
                  0.422205D+03           0.474328D+00
                  0.180035D+03           0.500000D+00
                  0.793308D+02           0.187769D+00
            S    4   1.00
                  0.620834D+03          -0.226511D-01
                  0.190829D+03          -0.109497D+00
                  0.312505D+02           0.500000D+00
                  0.135270D+02           0.492812D+00
            S    2   1.00
                  0.216097D+02          -0.165418D+00
                  0.372566D+01           0.500000D+00
            S    1   1.00
                  0.169770D+01           1.0000000
            S    1   1.00
                  0.489332D+00           1.0000000
            S    1   1.00
                  0.175712D+00           1.0000000
            P    8   1.00
                  0.960829D+04           0.478974D-03
                  0.227618D+04           0.417853D-02
                  0.736723D+03           0.229315D-01
                  0.281579D+03           0.892653D-01
                  0.118395D+03           0.255288D+00
                  0.527481D+02           0.479074D+00
                  0.245098D+02           0.500000D+00
                  0.112009D+02           0.200944D+00
            P    4   1.00
                  0.587849D+02          -0.189674D-01
                  0.918962D+01           0.264104D+00
                  0.413895D+01           0.500000D+00
                  0.184225D+01           0.319316D+00
            P    1   1.00
                  0.713862D+00           1.0000000
            P    1   1.00
                  0.274232D+00           1.0000000
            P    1   1.00
                  0.944411D-01           1.0000000
            D    7   1.00
                  0.398470D+03           0.204066D-02
                  0.118967D+03           0.175171D-01
                  0.450197D+02           0.829708D-01
                  0.190320D+02           0.236284D+00
                  0.855686D+01           0.428468D+00
                  0.382950D+01           0.500000D+00
                  0.166291D+01           0.349360D+00
            D    1   1.00
                  0.672953D+00           1.0000000
            D    1   1.00
                  0.252000D+00           1.0000000
            F    1   1.00
                  0.530000D+00           1.0000000
            ****
            
 Initial command:
 /usr/local/apps/g16_b01_avx/g16/l1.exe "/wrk/irikura/Gau-3436.inp" -scrdir="/wrk/irikura/"
 Entering Link 1 = /usr/local/apps/g16_b01_avx/g16/l1.exe PID=      3438.
  
 Copyright (c) 1988-2017, Gaussian, Inc.  All Rights Reserved.
  
 This is part of the Gaussian(R) 16 program.  It is based on
 the Gaussian(R) 09 system (copyright 2009, Gaussian, Inc.),
 the Gaussian(R) 03 system (copyright 2003, Gaussian, Inc.),
 the Gaussian(R) 98 system (copyright 1998, Gaussian, Inc.),
 the Gaussian(R) 94 system (copyright 1995, Gaussian, Inc.),
 the Gaussian 92(TM) system (copyright 1992, Gaussian, Inc.),
 the Gaussian 90(TM) system (copyright 1990, Gaussian, Inc.),
 the Gaussian 88(TM) system (copyright 1988, Gaussian, Inc.),
 the Gaussian 86(TM) system (copyright 1986, Carnegie Mellon
 University), and the Gaussian 82(TM) system (copyright 1983,
 Carnegie Mellon University). Gaussian is a federally registered
 trademark of Gaussian, Inc.
  
 This software contains proprietary and confidential information,
 including trade secrets, belonging to Gaussian, Inc.
  
 This software is provided under written license and may be
 used, copied, transmitted, or stored only in accord with that
 written license.
  
 The following legend is applicable only to US Government
 contracts under FAR:
  
                    RESTRICTED RIGHTS LEGEND
  
 Use, reproduction and disclosure by the US Government is
 subject to restrictions as set forth in subparagraphs (a)
 and (c) of the Commercial Computer Software - Restricted
 Rights clause in FAR 52.227-19.
  
 Gaussian, Inc.
 340 Quinnipiac St., Bldg. 40, Wallingford CT 06492
  
  
 ---------------------------------------------------------------
 Warning -- This program may not be used in any manner that
 competes with the business of Gaussian, Inc. or will provide
 assistance to any competitor of Gaussian, Inc.  The licensee
 of this program is prohibited from giving any competitor of
 Gaussian, Inc. access to this program.  By using this program,
 the user acknowledges that Gaussian, Inc. is engaged in the
 business of creating and licensing software in the field of
 computational chemistry and represents and warrants to the
 licensee that it is not a competitor of Gaussian, Inc. and that
 it will not use this program in any manner prohibited above.
 ---------------------------------------------------------------
  

 Cite this work as:
 Gaussian 16, Revision B.01,
 M. J. Frisch, G. W. Trucks, H. B. Schlegel, G. E. Scuseria, 
 M. A. Robb, J. R. Cheeseman, G. Scalmani, V. Barone, 
 G. A. Petersson, H. Nakatsuji, X. Li, M. Caricato, A. V. Marenich, 
 J. Bloino, B. G. Janesko, R. Gomperts, B. Mennucci, H. P. Hratchian, 
 J. V. Ortiz, A. F. Izmaylov, J. L. Sonnenberg, D. Williams-Young, 
 F. Ding, F. Lipparini, F. Egidi, J. Goings, B. Peng, A. Petrone, 
 T. Henderson, D. Ranasinghe, V. G. Zakrzewski, J. Gao, N. Rega, 
 G. Zheng, W. Liang, M. Hada, M. Ehara, K. Toyota, R. Fukuda, 
 J. Hasegawa, M. Ishida, T. Nakajima, Y. Honda, O. Kitao, H. Nakai, 
 T. Vreven, K. Throssell, J. A. Montgomery, Jr., J. E. Peralta, 
 F. Ogliaro, M. J. Bearpark, J. J. Heyd, E. N. Brothers, K. N. Kudin, 
 V. N. Staroverov, T. A. Keith, R. Kobayashi, J. Normand, 
 K. Raghavachari, A. P. Rendell, J. C. Burant, S. S. Iyengar, 
 J. Tomasi, M. Cossi, J. M. Millam, M. Klene, C. Adamo, R. Cammi, 
 J. W. Ochterski, R. L. Martin, K. Morokuma, O. Farkas, 
 J. B. Foresman, and D. J. Fox, Gaussian, Inc., Wallingford CT, 2016.
 
 ******************************************
 Gaussian 16:  ES64L-G16RevB.01 20-Dec-2017
                15-Jun-2022 
 ******************************************
 %mem=500mw
 %nprocs=4
 Will use up to    4 processors via shared memory.
 --------------------
 # b3lyp/gen opt freq
 --------------------
 1/18=20,19=15,26=3,38=1/1,3;
 2/9=110,12=2,17=6,18=5,40=1/2;
 3/5=7,11=2,25=1,30=1,71=1,74=-5/1,2,3;
 4//1;
 5/5=2,38=5/2;
 6/7=2,8=2,9=2,10=2,28=1/1;
 7//1,2,3,16;
 1/18=20,19=15,26=3/3(2);
 2/9=110/2;
 99//99;
 2/9=110/2;
 3/5=7,6=1,11=2,25=1,30=1,71=1,74=-5,82=7/1,2,3;
 4/5=5,16=3,69=1/1;
 5/5=2,38=5/2;
 7//1,2,3,16;
 1/18=20,19=15,26=3/3(-5);
 2/9=110/2;
 6/7=2,8=2,9=2,10=2,19=2,28=1/1;
 99/9=1/99;
 -----------------------
 i-butane, B3LYP/pcseg-2
 -----------------------
 Symbolic Z-matrix:
 Charge =  0 Multiplicity = 1
 C                     0.        0.        0.37214 
 H                     0.        0.        1.46789 
 C                     0.        1.45816  -0.09562 
 C                     1.2628   -0.72908  -0.09562 
 C                    -1.2628   -0.72908  -0.09562 
 H                     0.        1.5159   -1.1873 
 H                     1.31281  -0.75795  -1.1873 
 H                    -1.31281  -0.75795  -1.1873 
 H                     0.88199   1.99138   0.26371 
 H                    -0.88199   1.99138   0.26371 
 H                     1.28359  -1.75952   0.26371 
 H                     2.16558  -0.23186   0.26371 
 H                    -2.16558  -0.23186   0.26371 
 H                    -1.28359  -1.75952   0.26371 
 

 GradGradGradGradGradGradGradGradGradGradGradGradGradGradGradGradGradGrad
 Berny optimization.
 Initialization pass.
                           ----------------------------
                           !    Initial Parameters    !
                           ! (Angstroms and Degrees)  !
 --------------------------                            --------------------------
 ! Name  Definition              Value          Derivative Info.                !
 --------------------------------------------------------------------------------
 ! R1    R(1,2)                  1.0958         estimate D2E/DX2                !
 ! R2    R(1,3)                  1.5313         estimate D2E/DX2                !
 ! R3    R(1,4)                  1.5313         estimate D2E/DX2                !
 ! R4    R(1,5)                  1.5313         estimate D2E/DX2                !
 ! R5    R(3,6)                  1.0932         estimate D2E/DX2                !
 ! R6    R(3,9)                  1.0915         estimate D2E/DX2                !
 ! R7    R(3,10)                 1.0915         estimate D2E/DX2                !
 ! R8    R(4,7)                  1.0932         estimate D2E/DX2                !
 ! R9    R(4,11)                 1.0915         estimate D2E/DX2                !
 ! R10   R(4,12)                 1.0915         estimate D2E/DX2                !
 ! R11   R(5,8)                  1.0932         estimate D2E/DX2                !
 ! R12   R(5,13)                 1.0915         estimate D2E/DX2                !
 ! R13   R(5,14)                 1.0915         estimate D2E/DX2                !
 ! A1    A(2,1,3)              107.7855         estimate D2E/DX2                !
 ! A2    A(2,1,4)              107.7855         estimate D2E/DX2                !
 ! A3    A(2,1,5)              107.7855         estimate D2E/DX2                !
 ! A4    A(3,1,4)              111.103          estimate D2E/DX2                !
 ! A5    A(3,1,5)              111.103          estimate D2E/DX2                !
 ! A6    A(4,1,5)              111.103          estimate D2E/DX2                !
 ! A7    A(1,3,6)              110.8133         estimate D2E/DX2                !
 ! A8    A(1,3,9)              111.3844         estimate D2E/DX2                !
 ! A9    A(1,3,10)             111.3844         estimate D2E/DX2                !
 ! A10   A(6,3,9)              107.6346         estimate D2E/DX2                !
 ! A11   A(6,3,10)             107.6346         estimate D2E/DX2                !
 ! A12   A(9,3,10)             107.8136         estimate D2E/DX2                !
 ! A13   A(1,4,7)              110.8133         estimate D2E/DX2                !
 ! A14   A(1,4,11)             111.3843         estimate D2E/DX2                !
 ! A15   A(1,4,12)             111.3843         estimate D2E/DX2                !
 ! A16   A(7,4,11)             107.6345         estimate D2E/DX2                !
 ! A17   A(7,4,12)             107.6346         estimate D2E/DX2                !
 ! A18   A(11,4,12)            107.8137         estimate D2E/DX2                !
 ! A19   A(1,5,8)              110.8133         estimate D2E/DX2                !
 ! A20   A(1,5,13)             111.3843         estimate D2E/DX2                !
 ! A21   A(1,5,14)             111.3843         estimate D2E/DX2                !
 ! A22   A(8,5,13)             107.6346         estimate D2E/DX2                !
 ! A23   A(8,5,14)             107.6345         estimate D2E/DX2                !
 ! A24   A(13,5,14)            107.8137         estimate D2E/DX2                !
 ! D1    D(2,1,3,6)            180.0            estimate D2E/DX2                !
 ! D2    D(2,1,3,9)             60.2044         estimate D2E/DX2                !
 ! D3    D(2,1,3,10)           -60.2044         estimate D2E/DX2                !
 ! D4    D(4,1,3,6)             62.1183         estimate D2E/DX2                !
 ! D5    D(4,1,3,9)            -57.6773         estimate D2E/DX2                !
 ! D6    D(4,1,3,10)          -178.0861         estimate D2E/DX2                !
 ! D7    D(5,1,3,6)            -62.1183         estimate D2E/DX2                !
 ! D8    D(5,1,3,9)            178.0861         estimate D2E/DX2                !
 ! D9    D(5,1,3,10)            57.6773         estimate D2E/DX2                !
 ! D10   D(2,1,4,7)            180.0            estimate D2E/DX2                !
 ! D11   D(2,1,4,11)            60.2044         estimate D2E/DX2                !
 ! D12   D(2,1,4,12)           -60.2044         estimate D2E/DX2                !
 ! D13   D(3,1,4,7)            -62.1184         estimate D2E/DX2                !
 ! D14   D(3,1,4,11)           178.0861         estimate D2E/DX2                !
 ! D15   D(3,1,4,12)            57.6772         estimate D2E/DX2                !
 ! D16   D(5,1,4,7)             62.1183         estimate D2E/DX2                !
 ! D17   D(5,1,4,11)           -57.6772         estimate D2E/DX2                !
 ! D18   D(5,1,4,12)          -178.0861         estimate D2E/DX2                !
 ! D19   D(2,1,5,8)           -180.0            estimate D2E/DX2                !
 ! D20   D(2,1,5,13)            60.2044         estimate D2E/DX2                !
 ! D21   D(2,1,5,14)           -60.2044         estimate D2E/DX2                !
 ! D22   D(3,1,5,8)             62.1184         estimate D2E/DX2                !
 ! D23   D(3,1,5,13)           -57.6772         estimate D2E/DX2                !
 ! D24   D(3,1,5,14)          -178.0861         estimate D2E/DX2                !
 ! D25   D(4,1,5,8)            -62.1183         estimate D2E/DX2                !
 ! D26   D(4,1,5,13)           178.0861         estimate D2E/DX2                !
 ! D27   D(4,1,5,14)            57.6772         estimate D2E/DX2                !
 --------------------------------------------------------------------------------
 Trust Radius=3.00D-01 FncErr=1.00D-07 GrdErr=1.00D-06 EigMax=2.50D+02 EigMin=1.00D-04
 Number of steps in this run=     74 maximum allowed number of steps=    100.
 GradGradGradGradGradGradGradGradGradGradGradGradGradGradGradGradGradGrad

                          Input orientation:                          
 ---------------------------------------------------------------------
 Center     Atomic      Atomic             Coordinates (Angstroms)
 Number     Number       Type             X           Y           Z
 ---------------------------------------------------------------------
      1          6           0        0.000000    0.000000    0.372139
      2          1           0        0.000000    0.000000    1.467894
      3          6           0        0.000000    1.458156   -0.095617
      4          6           0        1.262800   -0.729078   -0.095617
      5          6           0       -1.262800   -0.729078   -0.095617
      6          1           0        0.000000    1.515899   -1.187295
      7          1           0        1.312807   -0.757950   -1.187295
      8          1           0       -1.312807   -0.757950   -1.187295
      9          1           0        0.881990    1.991381    0.263711
     10          1           0       -0.881990    1.991381    0.263711
     11          1           0        1.283591   -1.759516    0.263711
     12          1           0        2.165581   -0.231864    0.263711
     13          1           0       -2.165581   -0.231864    0.263711
     14          1           0       -1.283591   -1.759516    0.263711
 ---------------------------------------------------------------------
                    Distance matrix (angstroms):
                    1          2          3          4          5
     1  C    0.000000
     2  H    1.095755   0.000000
     3  C    1.531344   2.137940   0.000000
     4  C    1.531344   2.137939   2.525600   0.000000
     5  C    1.531344   2.137939   2.525600   2.525600   0.000000
     6  H    2.174807   3.057446   1.093204   2.797561   2.797561
     7  H    2.174807   3.057446   2.797561   1.093204   2.797561
     8  H    2.174807   3.057446   2.797561   2.797561   1.093204
     9  H    2.180656   2.488687   1.091491   2.770384   3.482835
    10  H    2.180656   2.488687   1.091491   3.482835   2.770384
    11  H    2.180656   2.488686   3.482834   1.091490   2.770384
    12  H    2.180656   2.488686   2.770384   1.091491   3.482834
    13  H    2.180656   2.488686   2.770384   3.482834   1.091491
    14  H    2.180656   2.488686   3.482834   2.770384   1.091490
                    6          7          8          9         10
     6  H    0.000000
     7  H    2.625614   0.000000
     8  H    2.625614   2.625614   0.000000
     9  H    1.763351   3.138446   3.805440   0.000000
    10  H    1.763351   3.805440   3.138446   1.763980   0.000000
    11  H    3.805439   1.763351   3.138445   3.772335   4.331163
    12  H    3.138445   1.763351   3.805439   2.567182   3.772334
    13  H    3.138445   3.805439   1.763351   3.772334   2.567182
    14  H    3.805439   3.138445   1.763351   4.331163   3.772335
                   11         12         13         14
    11  H    0.000000
    12  H    1.763980   0.000000
    13  H    3.772335   4.331162   0.000000
    14  H    2.567182   3.772335   1.763980   0.000000
 Stoichiometry    C4H10
 Framework group  C3V[C3(CH),3SGV(CH),X(H6)]
 Deg. of freedom     8
 Full point group                 C3V     NOp   6
 Largest Abelian subgroup         CS      NOp   2
 Largest concise Abelian subgroup CS      NOp   2
                         Standard orientation:                         
 ---------------------------------------------------------------------
 Center     Atomic      Atomic             Coordinates (Angstroms)
 Number     Number       Type             X           Y           Z
 ---------------------------------------------------------------------
      1          6           0        0.000000   -0.000000    0.372139
      2          1           0        0.000000   -0.000000    1.467894
      3          6           0        0.000000    1.458156   -0.095617
      4          6           0        1.262800   -0.729078   -0.095617
      5          6           0       -1.262800   -0.729078   -0.095617
      6          1           0        0.000000    1.515899   -1.187295
      7          1           0        1.312807   -0.757949   -1.187295
      8          1           0       -1.312807   -0.757949   -1.187295
      9          1           0        0.881990    1.991381    0.263711
     10          1           0       -0.881990    1.991381    0.263711
     11          1           0        1.283592   -1.759516    0.263711
     12          1           0        2.165582   -0.231865    0.263711
     13          1           0       -2.165582   -0.231865    0.263711
     14          1           0       -1.283592   -1.759516    0.263711
 ---------------------------------------------------------------------
 Rotational constants (GHZ):           7.7836299           7.7836299           4.5052567
 General basis read from cards:  (5D, 7F)
 There are   165 symmetry adapted cartesian basis functions of A'  symmetry.
 There are   125 symmetry adapted cartesian basis functions of A"  symmetry.
 There are   146 symmetry adapted basis functions of A'  symmetry.
 There are   114 symmetry adapted basis functions of A"  symmetry.
   260 basis functions,   384 primitive gaussians,   290 cartesian basis functions
    17 alpha electrons       17 beta electrons
       nuclear repulsion energy       134.5137631012 Hartrees.
 NAtoms=   14 NActive=   14 NUniq=    5 SFac= 4.00D+00 NAtFMM=   60 NAOKFM=F Big=F
 Integral buffers will be    131072 words long.
 Raffenetti 2 integral format.
 Two-electron integral symmetry is turned on.
 One-electron integrals computed using PRISM.
 NBasis=   260 RedAO= T EigKep=  3.85D-04  NBF=   146   114
 NBsUse=   260 1.00D-06 EigRej= -1.00D+00 NBFU=   146   114
 ExpMin= 7.42D-02 ExpMax= 7.32D+03 ExpMxC= 2.50D+02 IAcc=3 IRadAn=         5 AccDes= 0.00D+00
 Harris functional with IExCor=  402 and IRadAn=       5 diagonalized for initial guess.
 HarFok:  IExCor=  402 AccDes= 0.00D+00 IRadAn=         5 IDoV= 1 UseB2=F ITyADJ=14
 ICtDFT=  3500011 ScaDFX=  1.000000  1.000000  1.000000  1.000000
 FoFCou: FMM=F IPFlag=           0 FMFlag=      100000 FMFlg1=           0
         NFxFlg=           0 DoJE=T BraDBF=F KetDBF=T FulRan=T
         wScrn=  0.000000 ICntrl=       500 IOpCl=  0 I1Cent=   200000004 NGrid=           0
         NMat0=    1 NMatS0=      1 NMatT0=    0 NMatD0=    1 NMtDS0=    0 NMtDT0=    0
 Petite list used in FoFCou.
 Initial guess orbital symmetries:
       Occupied  (E) (E) (A1) (A1) (A1) (E) (E) (A1) (A1) (E) (E)
                 (E) (E) (A2) (E) (E) (A1)
       Virtual   (A1) (A1) (E) (E) (E) (E) (A1) (A1) (E) (E) (E)
                 (E) (A2) (E) (E) (E) (E) (A1) (A1) (E) (E) (A1)
                 (A2) (A1) (E) (E) (A1) (E) (E) (A2) (A1) (E) (E)
                 (E) (E) (A1) (A1) (E) (E) (E) (E) (E) (E) (A1)
                 (A2) (E) (E) (E) (E) (E) (E) (A1) (A2) (A1) (E)
                 (E) (A2) (E) (E) (A2) (E) (E) (E) (E) (A1) (A1)
                 (E) (E) (A1) (A1) (E) (E) (E) (E) (A1) (A1) (E)
                 (E) (E) (E) (E) (E) (A2) (A1) (E) (E) (A2) (E)
                 (E) (A2) (A1) (E) (E) (A1) (E) (E) (E) (E) (A1)
                 (E) (E) (A1) (E) (E) (A1) (A1) (A2) (E) (E) (E)
                 (E) (A1) (E) (E) (A1) (E) (E) (A2) (E) (E) (E)
                 (E) (A2) (E) (E) (A1) (A1) (E) (E) (A2) (E) (E)
                 (A1) (E) (E) (E) (E) (A2) (A1) (E) (E) (E) (E)
                 (E) (E) (A2) (A1) (A2) (A1) (E) (E) (E) (E) (A2)
                 (E) (E) (E) (E) (A1) (E) (E) (E) (E) (A1) (A1)
                 (A2) (E) (E) (E) (E) (A2) (A1) (E) (E) (E) (E)
                 (A1) (E) (E) (E) (E) (E) (E) (A2) (E) (E) (A1)
                 (A1) (A2) (A1) (E) (E) (A1) (E) (E) (E) (E) (A2)
                 (A1) (E) (E) (E) (E) (A1) (E) (E) (E) (E) (A2)
                 (E) (E) (E) (E) (A1) (A1) (A1) (A2) (E) (E) (A2)
                 (E) (E) (E) (E) (E) (E) (A1) (E) (E) (E) (E) (A2)
                 (A1) (E) (E) (A1) (A1) (E) (E) (A2) (E) (E) (A1)
 The electronic state of the initial guess is 1-A1.
 Requested convergence on RMS density matrix=1.00D-08 within 128 cycles.
 Requested convergence on MAX density matrix=1.00D-06.
 Requested convergence on             energy=1.00D-06.
 No special actions if energy rises.
 Integral accuracy reduced to 1.0D-05 until final iterations.
 Initial convergence to 1.0D-05 achieved.  Increase integral accuracy.
 SCF Done:  E(RB3LYP) =  -158.525640963     A.U. after   11 cycles
            NFock= 11  Conv=0.62D-08     -V/T= 2.0049

 **********************************************************************

            Population analysis using the SCF Density.

 **********************************************************************

 Orbital symmetries:
       Occupied  (A1) (E) (E) (A1) (A1) (E) (E) (A1) (A1) (E) (E)
                 (E) (E) (A2) (E) (E) (A1)
       Virtual   (A1) (A1) (E) (E) (A1) (E) (E) (E) (E) (A1) (A2)
                 (E) (E) (E) (E) (A1) (E) (E) (A1) (E) (E) (A2)
                 (E) (E) (A1) (A1) (A1) (E) (E) (A2) (E) (E) (A1)
                 (E) (E) (A1) (E) (E) (A1) (E) (E) (E) (E) (A1)
                 (A2) (E) (E) (E) (E) (E) (E) (A1) (A2) (E) (E)
                 (A1) (A2) (E) (E) (A2) (E) (E) (E) (E) (A1) (E)
                 (E) (A1) (A1) (A1) (E) (E) (E) (E) (A1) (A1) (E)
                 (E) (E) (E) (E) (E) (A2) (A1) (E) (E) (A2) (E)
                 (E) (A2) (A1) (E) (E) (A1) (E) (E) (E) (E) (A1)
                 (E) (E) (A1) (E) (E) (A1) (A1) (A2) (E) (E) (E)
                 (E) (A1) (E) (E) (E) (E) (A1) (A2) (E) (E) (E)
                 (E) (A2) (E) (E) (A1) (A1) (E) (E) (A2) (E) (E)
                 (A1) (E) (E) (A2) (E) (E) (A1) (E) (E) (E) (E)
                 (E) (E) (A2) (A1) (A2) (A1) (E) (E) (E) (E) (A2)
                 (E) (E) (E) (E) (A1) (E) (E) (E) (E) (A1) (A2)
                 (A1) (E) (E) (E) (E) (E) (E) (A2) (A1) (A1) (E)
                 (E) (E) (E) (E) (E) (A2) (E) (E) (E) (E) (A1)
                 (A1) (A2) (E) (E) (A1) (A1) (E) (E) (E) (E) (A2)
                 (A1) (E) (E) (E) (E) (A1) (E) (E) (E) (E) (A2)
                 (E) (E) (E) (E) (A1) (A1) (A1) (A2) (E) (E) (A2)
                 (E) (E) (E) (E) (E) (E) (A1) (E) (E) (E) (E) (A2)
                 (A1) (E) (E) (A1) (A1) (E) (E) (A2) (E) (E) (A1)
 The electronic state is 1-A1.
 Alpha  occ. eigenvalues --  -10.17290 -10.15570 -10.15570 -10.15569  -0.80279
 Alpha  occ. eigenvalues --   -0.68287  -0.68287  -0.56108  -0.46491  -0.43276
 Alpha  occ. eigenvalues --   -0.43276  -0.38535  -0.38535  -0.36504  -0.33051
 Alpha  occ. eigenvalues --   -0.33051  -0.32422
 Alpha virt. eigenvalues --    0.01246   0.04595   0.04883   0.04883   0.07640
 Alpha virt. eigenvalues --    0.07732   0.07732   0.11373   0.11373   0.12067
 Alpha virt. eigenvalues --    0.13176   0.14981   0.14981   0.18347   0.18347
 Alpha virt. eigenvalues --    0.20763   0.24025   0.24025   0.27395   0.27671
 Alpha virt. eigenvalues --    0.27671   0.31567   0.33553   0.33553   0.33594
 Alpha virt. eigenvalues --    0.33891   0.36561   0.36627   0.36627   0.37688
 Alpha virt. eigenvalues --    0.38056   0.38056   0.39960   0.42866   0.42866
 Alpha virt. eigenvalues --    0.51372   0.56846   0.56846   0.57792   0.68802
 Alpha virt. eigenvalues --    0.68802   0.76754   0.76754   0.81552   0.82704
 Alpha virt. eigenvalues --    0.87330   0.87330   0.94328   0.94328   0.95262
 Alpha virt. eigenvalues --    0.95262   0.98290   0.98579   0.99960   0.99960
 Alpha virt. eigenvalues --    1.00247   1.03742   1.07354   1.07354   1.09608
 Alpha virt. eigenvalues --    1.12218   1.12218   1.15175   1.15175   1.16992
 Alpha virt. eigenvalues --    1.21412   1.21412   1.22595   1.23429   1.29479
 Alpha virt. eigenvalues --    1.29853   1.29853   1.36602   1.36602   1.38216
 Alpha virt. eigenvalues --    1.46782   1.50875   1.50875   1.51257   1.51257
 Alpha virt. eigenvalues --    1.55598   1.55598   1.61936   1.67691   1.67997
 Alpha virt. eigenvalues --    1.67997   1.70993   1.79366   1.79366   1.81295
 Alpha virt. eigenvalues --    1.82605   1.83951   1.83951   1.91393   1.94270
 Alpha virt. eigenvalues --    1.94270   2.04331   2.04331   2.10232   2.15218
 Alpha virt. eigenvalues --    2.15218   2.28446   2.28564   2.28564   2.36339
 Alpha virt. eigenvalues --    2.41580   2.52188   2.53331   2.53331   2.60380
 Alpha virt. eigenvalues --    2.60380   2.70248   2.99864   2.99864   3.12064
 Alpha virt. eigenvalues --    3.12064   3.12106   3.16004   3.29337   3.29337
 Alpha virt. eigenvalues --    3.29466   3.29466   3.30088   3.34395   3.34395
 Alpha virt. eigenvalues --    3.37163   3.38232   3.40519   3.40519   3.48424
 Alpha virt. eigenvalues --    3.52476   3.52476   3.53082   3.71578   3.71578
 Alpha virt. eigenvalues --    3.77173   3.78545   3.78545   3.82130   3.82311
 Alpha virt. eigenvalues --    3.82311   3.85243   3.85243   3.86077   3.86077
 Alpha virt. eigenvalues --    3.87388   3.87663   3.91964   4.03519   4.03681
 Alpha virt. eigenvalues --    4.03681   4.11341   4.11341   4.16104   4.19761
 Alpha virt. eigenvalues --    4.19761   4.26495   4.26495   4.28024   4.32003
 Alpha virt. eigenvalues --    4.32003   4.37125   4.37125   4.39522   4.41845
 Alpha virt. eigenvalues --    4.42522   4.48625   4.48625   4.49390   4.49390
 Alpha virt. eigenvalues --    4.57384   4.57384   4.58270   4.58398   4.60845
 Alpha virt. eigenvalues --    4.61024   4.61024   4.63020   4.63020   4.65018
 Alpha virt. eigenvalues --    4.65018   4.69449   4.70935   4.70935   4.75925
 Alpha virt. eigenvalues --    4.75925   4.81297   4.85053   4.85288   4.87870
 Alpha virt. eigenvalues --    4.87870   4.89362   4.95582   4.96870   4.96870
 Alpha virt. eigenvalues --    5.05732   5.05732   5.08755   5.10656   5.14910
 Alpha virt. eigenvalues --    5.14910   5.22790   5.22790   5.28771   5.40817
 Alpha virt. eigenvalues --    5.40817   5.47138   5.47138   5.47390   5.50037
 Alpha virt. eigenvalues --    5.50037   5.52796   5.52796   5.56149   5.58551
 Alpha virt. eigenvalues --    5.69428   5.72249   5.77062   5.77062   5.80091
 Alpha virt. eigenvalues --    5.82844   5.82844   5.89007   5.89007   5.91284
 Alpha virt. eigenvalues --    5.91284   5.93187   5.93961   5.93961   5.96606
 Alpha virt. eigenvalues --    5.96606   6.01113   6.04890   6.10672   6.10672
 Alpha virt. eigenvalues --    6.15250   6.19471   6.22993   6.22993   6.26252
 Alpha virt. eigenvalues --    6.43391   6.43391   7.00169
          Condensed to atoms (all electrons):
               1          2          3          4          5          6
     1  C    4.815629   0.444469   0.335989   0.335989   0.335989  -0.035149
     2  H    0.444469   0.702660  -0.048731  -0.048731  -0.048731   0.011625
     3  C    0.335989  -0.048731   4.666006  -0.063310  -0.063310   0.424903
     4  C    0.335989  -0.048731  -0.063310   4.666006  -0.063310  -0.010111
     5  C    0.335989  -0.048731  -0.063310  -0.063310   4.666006  -0.010111
     6  H   -0.035149   0.011625   0.424903  -0.010111  -0.010111   0.650592
     7  H   -0.035149   0.011625  -0.010111   0.424903  -0.010111   0.005497
     8  H   -0.035149   0.011625  -0.010111  -0.010111   0.424903   0.005497
     9  H   -0.033504  -0.007877   0.422269  -0.007664   0.013109  -0.028526
    10  H   -0.033504  -0.007877   0.422269   0.013109  -0.007664  -0.028526
    11  H   -0.033504  -0.007877   0.013109   0.422269  -0.007664  -0.000135
    12  H   -0.033504  -0.007877  -0.007664   0.422269   0.013109  -0.001395
    13  H   -0.033504  -0.007877  -0.007664   0.013109   0.422269  -0.001395
    14  H   -0.033504  -0.007877   0.013109  -0.007664   0.422269  -0.000135
               7          8          9         10         11         12
     1  C   -0.035149  -0.035149  -0.033504  -0.033504  -0.033504  -0.033504
     2  H    0.011625   0.011625  -0.007877  -0.007877  -0.007877  -0.007877
     3  C   -0.010111  -0.010111   0.422269   0.422269   0.013109  -0.007664
     4  C    0.424903  -0.010111  -0.007664   0.013109   0.422269   0.422269
     5  C   -0.010111   0.424903   0.013109  -0.007664  -0.007664   0.013109
     6  H    0.005497   0.005497  -0.028526  -0.028526  -0.000135  -0.001395
     7  H    0.650592   0.005497  -0.001395  -0.000135  -0.028526  -0.028526
     8  H    0.005497   0.650592  -0.000135  -0.001395  -0.001395  -0.000135
     9  H   -0.001395  -0.000135   0.637904  -0.024169   0.000105   0.003963
    10  H   -0.000135  -0.001395  -0.024169   0.637904  -0.000568   0.000105
    11  H   -0.028526  -0.001395   0.000105  -0.000568   0.637904  -0.024169
    12  H   -0.028526  -0.000135   0.003963   0.000105  -0.024169   0.637904
    13  H   -0.000135  -0.028526   0.000105   0.003963   0.000105  -0.000568
    14  H   -0.001395  -0.028526  -0.000568   0.000105   0.003963   0.000105
              13         14
     1  C   -0.033504  -0.033504
     2  H   -0.007877  -0.007877
     3  C   -0.007664   0.013109
     4  C    0.013109  -0.007664
     5  C    0.422269   0.422269
     6  H   -0.001395  -0.000135
     7  H   -0.000135  -0.001395
     8  H   -0.028526  -0.028526
     9  H    0.000105  -0.000568
    10  H    0.003963   0.000105
    11  H    0.000105   0.003963
    12  H   -0.000568   0.000105
    13  H    0.637904  -0.024169
    14  H   -0.024169   0.637904
 Mulliken charges:
               1
     1  C    0.038402
     2  H    0.011453
     3  C   -0.086754
     4  C   -0.086754
     5  C   -0.086754
     6  H    0.017369
     7  H    0.017369
     8  H    0.017369
     9  H    0.026383
    10  H    0.026383
    11  H    0.026383
    12  H    0.026383
    13  H    0.026383
    14  H    0.026383
 Sum of Mulliken charges =  -0.00000
 Mulliken charges with hydrogens summed into heavy atoms:
               1
     1  C    0.049855
     3  C   -0.016618
     4  C   -0.016618
     5  C   -0.016618
 Electronic spatial extent (au):  <R**2>=            355.4903
 Charge=             -0.0000 electrons
 Dipole moment (field-independent basis, Debye):
    X=              0.0000    Y=              0.0000    Z=              0.1412  Tot=              0.1412
 Quadrupole moment (field-independent basis, Debye-Ang):
   XX=            -29.2415   YY=            -29.2415   ZZ=            -28.5711
   XY=             -0.0000   XZ=              0.0000   YZ=              0.0000
 Traceless Quadrupole moment (field-independent basis, Debye-Ang):
   XX=             -0.2235   YY=             -0.2235   ZZ=              0.4469
   XY=             -0.0000   XZ=              0.0000   YZ=              0.0000
 Octapole moment (field-independent basis, Debye-Ang**2):
  XXX=              0.0000  YYY=             -1.8709  ZZZ=             -0.6137  XYY=              0.0000
  XXY=              1.8709  XXZ=              1.3703  XZZ=              0.0000  YZZ=              0.0000
  YYZ=              1.3703  XYZ=             -0.0000
 Hexadecapole moment (field-independent basis, Debye-Ang**3):
 XXXX=           -221.9027 YYYY=           -221.9027 ZZZZ=            -67.8232 XXXY=              0.0000
 XXXZ=              0.0000 YYYX=              0.0000 YYYZ=             -1.0624 ZZZX=             -0.0000
 ZZZY=             -0.0000 XXYY=            -73.9676 XXZZ=            -49.3631 YYZZ=            -49.3631
 XXYZ=              1.0624 YYXZ=              0.0000 ZZXY=              0.0000
 N-N= 1.345137631012D+02 E-N=-6.353467899052D+02  KE= 1.577518166169D+02
 Symmetry A'   KE= 1.143651312742D+02
 Symmetry A"   KE= 4.338668534271D+01
 Calling FoFJK, ICntrl=      2127 FMM=F ISym2X=1 I1Cent= 0 IOpClX= 0 NMat=1 NMatS=1 NMatT=0.
 ***** Axes restored to original set *****
 -------------------------------------------------------------------
 Center     Atomic                   Forces (Hartrees/Bohr)
 Number     Number              X              Y              Z
 -------------------------------------------------------------------
      1        6          -0.000000000   -0.000000000   -0.000252709
      2        1          -0.000000000    0.000000000   -0.000297271
      3        6           0.000000000    0.000046630    0.000073706
      4        6           0.000040383   -0.000023315    0.000073706
      5        6          -0.000040383   -0.000023315    0.000073706
      6        1           0.000000000   -0.000099481    0.000101631
      7        1          -0.000086153    0.000049741    0.000101631
      8        1           0.000086153    0.000049741    0.000101631
      9        1          -0.000018201   -0.000074278    0.000003995
     10        1           0.000018201   -0.000074278    0.000003995
     11        1          -0.000055226    0.000052902    0.000003995
     12        1          -0.000073427    0.000021377    0.000003995
     13        1           0.000073427    0.000021377    0.000003995
     14        1           0.000055226    0.000052902    0.000003995
 -------------------------------------------------------------------
 Cartesian Forces:  Max     0.000297271 RMS     0.000080314

 GradGradGradGradGradGradGradGradGradGradGradGradGradGradGradGradGradGrad
 Berny optimization.
 FormGI is forming the generalized inverse of G from B-inverse, IUseBI=4.
 Internal  Forces:  Max     0.000297271 RMS     0.000082470
 Search for a local minimum.
 Step number   1 out of a maximum of   74
 All quantities printed in internal units (Hartrees-Bohrs-Radians)
 Mixed Optimization -- En-DIIS/RFO-DIIS
 Second derivative matrix not updated -- first step.
 ITU=  0
     Eigenvalues ---    0.00351   0.00351   0.00351   0.03495   0.04816
     Eigenvalues ---    0.04816   0.05440   0.05440   0.05440   0.05515
     Eigenvalues ---    0.05515   0.05515   0.16000   0.16000   0.16000
     Eigenvalues ---    0.16000   0.16000   0.16000   0.16000   0.16000
     Eigenvalues ---    0.16000   0.16856   0.16856   0.29300   0.29300
     Eigenvalues ---    0.29300   0.34156   0.34445   0.34445   0.34445
     Eigenvalues ---    0.34641   0.34641   0.34641   0.34641   0.34641
     Eigenvalues ---    0.34641
 RFO step:  Lambda=-2.09608204D-06 EMin= 3.51326221D-03
 Linear search not attempted -- first point.
 Iteration  1 RMS(Cart)=  0.00061727 RMS(Int)=  0.00000033
 Iteration  2 RMS(Cart)=  0.00000059 RMS(Int)=  0.00000016
 ClnCor:  largest displacement from symmetrization is 6.00D-09 for atom     7.
 Variable       Old X    -DE/DX   Delta X   Delta X   Delta X     New X
                                 (Linear)    (Quad)   (Total)
    R1        2.07068  -0.00030   0.00000  -0.00087  -0.00087   2.06981
    R2        2.89382  -0.00025   0.00000  -0.00085  -0.00085   2.89298
    R3        2.89382  -0.00025   0.00000  -0.00085  -0.00085   2.89298
    R4        2.89382  -0.00025   0.00000  -0.00085  -0.00085   2.89298
    R5        2.06586  -0.00011   0.00000  -0.00031  -0.00031   2.06555
    R6        2.06262  -0.00005   0.00000  -0.00014  -0.00014   2.06248
    R7        2.06262  -0.00005   0.00000  -0.00014  -0.00014   2.06248
    R8        2.06586  -0.00011   0.00000  -0.00031  -0.00031   2.06555
    R9        2.06262  -0.00005   0.00000  -0.00014  -0.00014   2.06248
   R10        2.06262  -0.00005   0.00000  -0.00014  -0.00014   2.06248
   R11        2.06586  -0.00011   0.00000  -0.00031  -0.00031   2.06555
   R12        2.06262  -0.00005   0.00000  -0.00014  -0.00014   2.06248
   R13        2.06262  -0.00005   0.00000  -0.00014  -0.00014   2.06248
    A1        1.88121  -0.00002   0.00000  -0.00058  -0.00058   1.88063
    A2        1.88121  -0.00002   0.00000  -0.00058  -0.00058   1.88063
    A3        1.88121  -0.00002   0.00000  -0.00058  -0.00058   1.88063
    A4        1.93911   0.00002   0.00000   0.00055   0.00055   1.93966
    A5        1.93911   0.00002   0.00000   0.00055   0.00055   1.93966
    A6        1.93911   0.00002   0.00000   0.00055   0.00055   1.93966
    A7        1.93406  -0.00011   0.00000  -0.00077  -0.00077   1.93328
    A8        1.94402  -0.00005   0.00000  -0.00025  -0.00025   1.94377
    A9        1.94402  -0.00005   0.00000  -0.00025  -0.00025   1.94377
   A10        1.87858   0.00008   0.00000   0.00041   0.00041   1.87899
   A11        1.87858   0.00008   0.00000   0.00041   0.00041   1.87899
   A12        1.88170   0.00006   0.00000   0.00052   0.00052   1.88222
   A13        1.93406  -0.00011   0.00000  -0.00077  -0.00077   1.93328
   A14        1.94402  -0.00005   0.00000  -0.00025  -0.00025   1.94377
   A15        1.94402  -0.00005   0.00000  -0.00025  -0.00025   1.94377
   A16        1.87858   0.00008   0.00000   0.00041   0.00041   1.87899
   A17        1.87858   0.00008   0.00000   0.00041   0.00041   1.87899
   A18        1.88170   0.00006   0.00000   0.00052   0.00052   1.88222
   A19        1.93406  -0.00011   0.00000  -0.00077  -0.00077   1.93328
   A20        1.94402  -0.00005   0.00000  -0.00025  -0.00025   1.94377
   A21        1.94402  -0.00005   0.00000  -0.00025  -0.00025   1.94377
   A22        1.87858   0.00008   0.00000   0.00041   0.00041   1.87899
   A23        1.87858   0.00008   0.00000   0.00041   0.00041   1.87899
   A24        1.88170   0.00006   0.00000   0.00052   0.00052   1.88222
    D1        3.14159   0.00000   0.00000   0.00000   0.00000   3.14159
    D2        1.05076   0.00001   0.00000   0.00016   0.00016   1.05092
    D3       -1.05076  -0.00001   0.00000  -0.00016  -0.00016  -1.05092
    D4        1.08417   0.00003   0.00000   0.00075   0.00075   1.08492
    D5       -1.00666   0.00003   0.00000   0.00091   0.00091  -1.00575
    D6       -3.10819   0.00002   0.00000   0.00059   0.00059  -3.10759
    D7       -1.08417  -0.00003   0.00000  -0.00075  -0.00075  -1.08492
    D8        3.10819  -0.00002   0.00000  -0.00059  -0.00059   3.10759
    D9        1.00666  -0.00003   0.00000  -0.00091  -0.00091   1.00575
   D10       -3.14159  -0.00000   0.00000  -0.00000  -0.00000   3.14159
   D11        1.05076   0.00001   0.00000   0.00016   0.00016   1.05092
   D12       -1.05076  -0.00001   0.00000  -0.00016  -0.00016  -1.05092
   D13       -1.08417  -0.00003   0.00000  -0.00075  -0.00075  -1.08492
   D14        3.10819  -0.00002   0.00000  -0.00059  -0.00059   3.10759
   D15        1.00666  -0.00003   0.00000  -0.00091  -0.00091   1.00575
   D16        1.08417   0.00003   0.00000   0.00075   0.00075   1.08492
   D17       -1.00666   0.00003   0.00000   0.00091   0.00091  -1.00575
   D18       -3.10819   0.00002   0.00000   0.00059   0.00059  -3.10759
   D19        3.14159  -0.00000   0.00000  -0.00000   0.00000   3.14159
   D20        1.05076   0.00001   0.00000   0.00016   0.00016   1.05092
   D21       -1.05076  -0.00001   0.00000  -0.00016  -0.00016  -1.05092
   D22        1.08417   0.00003   0.00000   0.00075   0.00075   1.08492
   D23       -1.00666   0.00003   0.00000   0.00091   0.00091  -1.00575
   D24       -3.10819   0.00002   0.00000   0.00059   0.00059  -3.10759
   D25       -1.08417  -0.00003   0.00000  -0.00075  -0.00075  -1.08492
   D26        3.10819  -0.00002   0.00000  -0.00059  -0.00059   3.10759
   D27        1.00666  -0.00003   0.00000  -0.00091  -0.00091   1.00575
         Item               Value     Threshold  Converged?
 Maximum Force            0.000297     0.000450     YES
 RMS     Force            0.000082     0.000300     YES
 Maximum Displacement     0.002696     0.001800     NO 
 RMS     Displacement     0.000618     0.001200     YES
 Predicted change in Energy=-1.048318D-06
 GradGradGradGradGradGradGradGradGradGradGradGradGradGradGradGradGradGrad

                          Input orientation:                          
 ---------------------------------------------------------------------
 Center     Atomic      Atomic             Coordinates (Angstroms)
 Number     Number       Type             X           Y           Z
 ---------------------------------------------------------------------
      1          6           0        0.000000    0.000000    0.371173
      2          1           0       -0.000000    0.000000    1.466467
      3          6           0        0.000000    1.458003   -0.095594
      4          6           0        1.262668   -0.729001   -0.095594
      5          6           0       -1.262668   -0.729001   -0.095594
      6          1           0        0.000000    1.515531   -1.187120
      7          1           0        1.312488   -0.757765   -1.187120
      8          1           0       -1.312488   -0.757765   -1.187120
      9          1           0        0.882095    1.990712    0.264011
     10          1           0       -0.882095    1.990712    0.264011
     11          1           0        1.282959   -1.759272    0.264011
     12          1           0        2.165054   -0.231439    0.264011
     13          1           0       -2.165054   -0.231439    0.264011
     14          1           0       -1.282959   -1.759272    0.264011
 ---------------------------------------------------------------------
                    Distance matrix (angstroms):
                    1          2          3          4          5
     1  C    0.000000
     2  H    1.095294   0.000000
     3  C    1.530897   2.136775   0.000000
     4  C    1.530897   2.136775   2.525335   0.000000
     5  C    1.530897   2.136775   2.525335   2.525335   0.000000
     6  H    2.173732   3.055872   1.093040   2.797085   2.797085
     7  H    2.173732   3.055872   2.797085   1.093040   2.797085
     8  H    2.173732   3.055872   2.797085   2.797085   1.093040
     9  H    2.180025   2.487353   1.091415   2.769655   3.482264
    10  H    2.180025   2.487353   1.091415   3.482264   2.769655
    11  H    2.180025   2.487353   3.482264   1.091415   2.769655
    12  H    2.180025   2.487353   2.769655   1.091415   3.482264
    13  H    2.180025   2.487353   2.769655   3.482264   1.091415
    14  H    2.180025   2.487353   3.482264   2.769655   1.091415
                    6          7          8          9         10
     6  H    0.000000
     7  H    2.624977   0.000000
     8  H    2.624977   2.624977   0.000000
     9  H    1.763425   3.137697   3.804747   0.000000
    10  H    1.763425   3.804747   3.137697   1.764190   0.000000
    11  H    3.804747   1.763425   3.137697   3.771349   4.330109
    12  H    3.137697   1.763425   3.804747   2.565918   3.771349
    13  H    3.137697   3.804747   1.763425   3.771349   2.565918
    14  H    3.804747   3.137697   1.763425   4.330109   3.771349
                   11         12         13         14
    11  H    0.000000
    12  H    1.764190   0.000000
    13  H    3.771349   4.330109   0.000000
    14  H    2.565918   3.771349   1.764190   0.000000
 Stoichiometry    C4H10
 Framework group  C3V[C3(CH),3SGV(CH),X(H6)]
 Deg. of freedom     8
 Full point group                 C3V     NOp   6
 Largest Abelian subgroup         CS      NOp   2
 Largest concise Abelian subgroup CS      NOp   2
                         Standard orientation:                         
 ---------------------------------------------------------------------
 Center     Atomic      Atomic             Coordinates (Angstroms)
 Number     Number       Type             X           Y           Z
 ---------------------------------------------------------------------
      1          6           0        0.000000    0.000000    0.371305
      2          1           0        0.000000    0.000000    1.466599
      3          6           0        0.000000    1.458003   -0.095462
      4          6           0        1.262668   -0.729001   -0.095462
      5          6           0       -1.262668   -0.729001   -0.095462
      6          1           0        0.000000    1.515531   -1.186988
      7          1           0        1.312488   -0.757765   -1.186988
      8          1           0       -1.312488   -0.757765   -1.186988
      9          1           0        0.882095    1.990712    0.264143
     10          1           0       -0.882095    1.990712    0.264143
     11          1           0        1.282959   -1.759272    0.264143
     12          1           0        2.165054   -0.231439    0.264143
     13          1           0       -2.165054   -0.231439    0.264143
     14          1           0       -1.282959   -1.759272    0.264143
 ---------------------------------------------------------------------
 Rotational constants (GHZ):           7.7872692           7.7872692           4.5066403
 Basis read from rwf:  (5D, 7F)
 There are   165 symmetry adapted cartesian basis functions of A'  symmetry.
 There are   125 symmetry adapted cartesian basis functions of A"  symmetry.
 There are   146 symmetry adapted basis functions of A'  symmetry.
 There are   114 symmetry adapted basis functions of A"  symmetry.
   260 basis functions,   384 primitive gaussians,   290 cartesian basis functions
    17 alpha electrons       17 beta electrons
       nuclear repulsion energy       134.5437002786 Hartrees.
 NAtoms=   14 NActive=   14 NUniq=    5 SFac= 4.00D+00 NAtFMM=   60 NAOKFM=F Big=F
 Integral buffers will be    131072 words long.
 Raffenetti 2 integral format.
 Two-electron integral symmetry is turned on.
 One-electron integrals computed using PRISM.
 NBasis=   260 RedAO= T EigKep=  3.85D-04  NBF=   146   114
 NBsUse=   260 1.00D-06 EigRej= -1.00D+00 NBFU=   146   114
 Initial guess from the checkpoint file:  "/wrk/irikura/Gau-3438.chk"
 B after Tr=     0.000000   -0.000000    0.000000
         Rot=    1.000000   -0.000000    0.000000   -0.000000 Ang=   0.00 deg.
 Initial guess orbital symmetries:
       Occupied  (A1) (E) (E) (A1) (A1) (E) (E) (A1) (A1) (E) (E)
                 (E) (E) (A2) (E) (E) (A1)
       Virtual   (A1) (A1) (E) (E) (A1) (E) (E) (E) (E) (A1) (A2)
                 (E) (E) (E) (E) (A1) (E) (E) (A1) (E) (E) (A2)
                 (E) (E) (A1) (A1) (A1) (E) (E) (A2) (E) (E) (A1)
                 (E) (E) (A1) (E) (E) (A1) (E) (E) (E) (E) (A1)
                 (A2) (E) (E) (E) (E) (E) (E) (A1) (A2) (E) (E)
                 (A1) (A2) (E) (E) (A2) (E) (E) (E) (E) (A1) (E)
                 (E) (A1) (A1) (A1) (E) (E) (E) (E) (A1) (A1) (E)
                 (E) (E) (E) (E) (E) (A2) (A1) (E) (E) (A2) (E)
                 (E) (A2) (A1) (E) (E) (A1) (E) (E) (E) (E) (A1)
                 (E) (E) (A1) (E) (E) (A1) (A1) (A2) (E) (E) (E)
                 (E) (A1) (E) (E) (E) (E) (A1) (A2) (E) (E) (E)
                 (E) (A2) (E) (E) (A1) (A1) (E) (E) (A2) (E) (E)
                 (A1) (E) (E) (A2) (E) (E) (A1) (E) (E) (E) (E)
                 (E) (E) (A2) (A1) (A2) (A1) (E) (E) (E) (E) (A2)
                 (E) (E) (E) (E) (A1) (E) (E) (E) (E) (A1) (A2)
                 (A1) (E) (E) (E) (E) (E) (E) (A2) (A1) (A1) (E)
                 (E) (E) (E) (E) (E) (A2) (E) (E) (E) (E) (A1)
                 (A1) (A2) (E) (E) (A1) (A1) (E) (E) (E) (E) (A2)
                 (A1) (E) (E) (E) (E) (A1) (E) (E) (E) (E) (A2)
                 (E) (E) (E) (E) (A1) (A1) (A1) (A2) (E) (E) (A2)
                 (E) (E) (E) (E) (E) (E) (A1) (E) (E) (E) (E) (A2)
                 (A1) (E) (E) (A1) (A1) (E) (E) (A2) (E) (E) (A1)
 Requested convergence on RMS density matrix=1.00D-08 within 128 cycles.
 Requested convergence on MAX density matrix=1.00D-06.
 Requested convergence on             energy=1.00D-06.
 No special actions if energy rises.
 SCF Done:  E(RB3LYP) =  -158.525641934     A.U. after    5 cycles
            NFock=  5  Conv=0.99D-08     -V/T= 2.0049
 Calling FoFJK, ICntrl=      2127 FMM=F ISym2X=1 I1Cent= 0 IOpClX= 0 NMat=1 NMatS=1 NMatT=0.
 ***** Axes restored to original set *****
 -------------------------------------------------------------------
 Center     Atomic                   Forces (Hartrees/Bohr)
 Number     Number              X              Y              Z
 -------------------------------------------------------------------
      1        6           0.000000000   -0.000000000    0.000041623
      2        1           0.000000000    0.000000000    0.000036024
      3        6           0.000000000    0.000032884   -0.000009523
      4        6           0.000028479   -0.000016442   -0.000009523
      5        6          -0.000028479   -0.000016442   -0.000009523
      6        1           0.000000000    0.000010806   -0.000010713
      7        1           0.000009358   -0.000005403   -0.000010713
      8        1          -0.000009358   -0.000005403   -0.000010713
      9        1          -0.000006538   -0.000013094   -0.000002823
     10        1           0.000006538   -0.000013094   -0.000002823
     11        1          -0.000008071    0.000012209   -0.000002823
     12        1          -0.000014609    0.000000885   -0.000002823
     13        1           0.000014609    0.000000885   -0.000002823
     14        1           0.000008071    0.000012209   -0.000002823
 -------------------------------------------------------------------
 Cartesian Forces:  Max     0.000041623 RMS     0.000014288

 GradGradGradGradGradGradGradGradGradGradGradGradGradGradGradGradGradGrad
 Berny optimization.
 Using GEDIIS/GDIIS optimizer.
 FormGI is forming the generalized inverse of G from B-inverse, IUseBI=4.
 Internal  Forces:  Max     0.000036024 RMS     0.000010287
 Search for a local minimum.
 Step number   2 out of a maximum of   74
 All quantities printed in internal units (Hartrees-Bohrs-Radians)
 Mixed Optimization -- En-DIIS/RFO-DIIS
 Swapping is turned off.
 Update second derivatives using D2CorX and points    1    2
 DE= -9.71D-07 DEPred=-1.05D-06 R= 9.26D-01
 TightC=F SS=  1.41D+00  RLast= 4.46D-03 DXNew= 5.0454D-01 1.3388D-02
 Trust test= 9.26D-01 RLast= 4.46D-03 DXMaxT set to 3.00D-01
 ITU=  1  0
     Eigenvalues ---    0.00351   0.00351   0.00351   0.03555   0.04818
     Eigenvalues ---    0.04818   0.05443   0.05443   0.05469   0.05521
     Eigenvalues ---    0.05521   0.05521   0.15309   0.16000   0.16000
     Eigenvalues ---    0.16000   0.16000   0.16000   0.16000   0.16000
     Eigenvalues ---    0.16556   0.16871   0.16871   0.29300   0.29300
     Eigenvalues ---    0.30181   0.34127   0.34366   0.34445   0.34445
     Eigenvalues ---    0.34641   0.34641   0.34641   0.34641   0.34641
     Eigenvalues ---    0.35703
 En-DIIS/RFO-DIIS/Sim-DIIS IScMMF=       -3 using points:     2    1
 RFO step:  Lambda=-2.25965067D-08.
 DidBck=F Rises=F RFO-DIIS coefs:    0.93126    0.06874
 Iteration  1 RMS(Cart)=  0.00005405 RMS(Int)=  0.00000001
 Iteration  2 RMS(Cart)=  0.00000000 RMS(Int)=  0.00000001
 ClnCor:  largest displacement from symmetrization is 5.10D-10 for atom     7.
 Variable       Old X    -DE/DX   Delta X   Delta X   Delta X     New X
                                 (Linear)    (Quad)   (Total)
    R1        2.06981   0.00004   0.00006   0.00003   0.00009   2.06990
    R2        2.89298   0.00002   0.00006   0.00001   0.00007   2.89305
    R3        2.89298   0.00002   0.00006   0.00001   0.00007   2.89305
    R4        2.89298   0.00002   0.00006   0.00001   0.00007   2.89305
    R5        2.06555   0.00001   0.00002   0.00001   0.00003   2.06557
    R6        2.06248  -0.00001   0.00001  -0.00004  -0.00004   2.06244
    R7        2.06248  -0.00001   0.00001  -0.00004  -0.00004   2.06244
    R8        2.06555   0.00001   0.00002   0.00001   0.00003   2.06557
    R9        2.06248  -0.00001   0.00001  -0.00004  -0.00004   2.06244
   R10        2.06248  -0.00001   0.00001  -0.00004  -0.00004   2.06244
   R11        2.06555   0.00001   0.00002   0.00001   0.00003   2.06557
   R12        2.06248  -0.00001   0.00001  -0.00004  -0.00004   2.06244
   R13        2.06248  -0.00001   0.00001  -0.00004  -0.00004   2.06244
    A1        1.88063   0.00000   0.00004   0.00001   0.00005   1.88067
    A2        1.88063   0.00000   0.00004   0.00001   0.00005   1.88067
    A3        1.88063   0.00000   0.00004   0.00001   0.00005   1.88067
    A4        1.93966  -0.00000  -0.00004  -0.00001  -0.00004   1.93962
    A5        1.93966  -0.00000  -0.00004  -0.00001  -0.00004   1.93962
    A6        1.93966  -0.00000  -0.00004  -0.00001  -0.00004   1.93962
    A7        1.93328   0.00002   0.00005   0.00006   0.00011   1.93340
    A8        1.94377  -0.00001   0.00002  -0.00009  -0.00008   1.94370
    A9        1.94377  -0.00001   0.00002  -0.00009  -0.00008   1.94370
   A10        1.87899  -0.00000  -0.00003   0.00003   0.00000   1.87899
   A11        1.87899  -0.00000  -0.00003   0.00003   0.00000   1.87899
   A12        1.88222   0.00001  -0.00004   0.00008   0.00004   1.88226
   A13        1.93328   0.00002   0.00005   0.00006   0.00011   1.93340
   A14        1.94377  -0.00001   0.00002  -0.00009  -0.00008   1.94370
   A15        1.94377  -0.00001   0.00002  -0.00009  -0.00008   1.94370
   A16        1.87899  -0.00000  -0.00003   0.00003   0.00000   1.87899
   A17        1.87899  -0.00000  -0.00003   0.00003   0.00000   1.87899
   A18        1.88222   0.00001  -0.00004   0.00008   0.00004   1.88226
   A19        1.93328   0.00002   0.00005   0.00006   0.00011   1.93340
   A20        1.94377  -0.00001   0.00002  -0.00009  -0.00008   1.94370
   A21        1.94377  -0.00001   0.00002  -0.00009  -0.00008   1.94370
   A22        1.87899  -0.00000  -0.00003   0.00003   0.00000   1.87899
   A23        1.87899  -0.00000  -0.00003   0.00003   0.00000   1.87899
   A24        1.88222   0.00001  -0.00004   0.00008   0.00004   1.88226
    D1        3.14159   0.00000   0.00000  -0.00000   0.00000   3.14159
    D2        1.05092  -0.00000  -0.00001  -0.00002  -0.00003   1.05090
    D3       -1.05092   0.00000   0.00001   0.00002   0.00003  -1.05090
    D4        1.08492  -0.00000  -0.00005  -0.00001  -0.00006   1.08486
    D5       -1.00575  -0.00000  -0.00006  -0.00002  -0.00009  -1.00583
    D6       -3.10759  -0.00000  -0.00004   0.00001  -0.00003  -3.10763
    D7       -1.08492   0.00000   0.00005   0.00001   0.00006  -1.08486
    D8        3.10759   0.00000   0.00004  -0.00001   0.00003   3.10763
    D9        1.00575   0.00000   0.00006   0.00002   0.00009   1.00583
   D10        3.14159  -0.00000   0.00000  -0.00000  -0.00000   3.14159
   D11        1.05092  -0.00000  -0.00001  -0.00002  -0.00003   1.05090
   D12       -1.05092   0.00000   0.00001   0.00002   0.00003  -1.05090
   D13       -1.08492   0.00000   0.00005   0.00001   0.00006  -1.08486
   D14        3.10759   0.00000   0.00004  -0.00001   0.00003   3.10763
   D15        1.00575   0.00000   0.00006   0.00002   0.00009   1.00583
   D16        1.08492  -0.00000  -0.00005  -0.00001  -0.00006   1.08486
   D17       -1.00575  -0.00000  -0.00006  -0.00002  -0.00009  -1.00583
   D18       -3.10759  -0.00000  -0.00004   0.00001  -0.00003  -3.10763
   D19        3.14159   0.00000   0.00000   0.00000   0.00000   3.14159
   D20        1.05092  -0.00000  -0.00001  -0.00002  -0.00003   1.05090
   D21       -1.05092   0.00000   0.00001   0.00002   0.00003  -1.05090
   D22        1.08492  -0.00000  -0.00005  -0.00001  -0.00006   1.08486
   D23       -1.00575  -0.00000  -0.00006  -0.00002  -0.00009  -1.00583
   D24       -3.10759  -0.00000  -0.00004   0.00001  -0.00003  -3.10763
   D25       -1.08492   0.00000   0.00005   0.00001   0.00006  -1.08486
   D26        3.10759   0.00000   0.00004  -0.00001   0.00003   3.10763
   D27        1.00575   0.00000   0.00006   0.00002   0.00009   1.00583
         Item               Value     Threshold  Converged?
 Maximum Force            0.000036     0.000450     YES
 RMS     Force            0.000010     0.000300     YES
 Maximum Displacement     0.000192     0.001800     YES
 RMS     Displacement     0.000054     0.001200     YES
 Predicted change in Energy=-1.430462D-08
 Optimization completed.
    -- Stationary point found.
                           ----------------------------
                           !   Optimized Parameters   !
                           ! (Angstroms and Degrees)  !
 --------------------------                            --------------------------
 ! Name  Definition              Value          Derivative Info.                !
 --------------------------------------------------------------------------------
 ! R1    R(1,2)                  1.0953         -DE/DX =    0.0                 !
 ! R2    R(1,3)                  1.5309         -DE/DX =    0.0                 !
 ! R3    R(1,4)                  1.5309         -DE/DX =    0.0                 !
 ! R4    R(1,5)                  1.5309         -DE/DX =    0.0                 !
 ! R5    R(3,6)                  1.093          -DE/DX =    0.0                 !
 ! R6    R(3,9)                  1.0914         -DE/DX =    0.0                 !
 ! R7    R(3,10)                 1.0914         -DE/DX =    0.0                 !
 ! R8    R(4,7)                  1.093          -DE/DX =    0.0                 !
 ! R9    R(4,11)                 1.0914         -DE/DX =    0.0                 !
 ! R10   R(4,12)                 1.0914         -DE/DX =    0.0                 !
 ! R11   R(5,8)                  1.093          -DE/DX =    0.0                 !
 ! R12   R(5,13)                 1.0914         -DE/DX =    0.0                 !
 ! R13   R(5,14)                 1.0914         -DE/DX =    0.0                 !
 ! A1    A(2,1,3)              107.752          -DE/DX =    0.0                 !
 ! A2    A(2,1,4)              107.752          -DE/DX =    0.0                 !
 ! A3    A(2,1,5)              107.752          -DE/DX =    0.0                 !
 ! A4    A(3,1,4)              111.1343         -DE/DX =    0.0                 !
 ! A5    A(3,1,5)              111.1343         -DE/DX =    0.0                 !
 ! A6    A(4,1,5)              111.1343         -DE/DX =    0.0                 !
 ! A7    A(1,3,6)              110.769          -DE/DX =    0.0                 !
 ! A8    A(1,3,9)              111.3701         -DE/DX =    0.0                 !
 ! A9    A(1,3,10)             111.3701         -DE/DX =    0.0                 !
 ! A10   A(6,3,9)              107.6583         -DE/DX =    0.0                 !
 ! A11   A(6,3,10)             107.6583         -DE/DX =    0.0                 !
 ! A12   A(9,3,10)             107.8433         -DE/DX =    0.0                 !
 ! A13   A(1,4,7)              110.769          -DE/DX =    0.0                 !
 ! A14   A(1,4,11)             111.3701         -DE/DX =    0.0                 !
 ! A15   A(1,4,12)             111.3701         -DE/DX =    0.0                 !
 ! A16   A(7,4,11)             107.6583         -DE/DX =    0.0                 !
 ! A17   A(7,4,12)             107.6583         -DE/DX =    0.0                 !
 ! A18   A(11,4,12)            107.8433         -DE/DX =    0.0                 !
 ! A19   A(1,5,8)              110.769          -DE/DX =    0.0                 !
 ! A20   A(1,5,13)             111.3701         -DE/DX =    0.0                 !
 ! A21   A(1,5,14)             111.3701         -DE/DX =    0.0                 !
 ! A22   A(8,5,13)             107.6583         -DE/DX =    0.0                 !
 ! A23   A(8,5,14)             107.6583         -DE/DX =    0.0                 !
 ! A24   A(13,5,14)            107.8433         -DE/DX =    0.0                 !
 ! D1    D(2,1,3,6)            180.0            -DE/DX =    0.0                 !
 ! D2    D(2,1,3,9)             60.2135         -DE/DX =    0.0                 !
 ! D3    D(2,1,3,10)           -60.2135         -DE/DX =    0.0                 !
 ! D4    D(4,1,3,6)             62.1615         -DE/DX =    0.0                 !
 ! D5    D(4,1,3,9)            -57.625          -DE/DX =    0.0                 !
 ! D6    D(4,1,3,10)          -178.052          -DE/DX =    0.0                 !
 ! D7    D(5,1,3,6)            -62.1615         -DE/DX =    0.0                 !
 ! D8    D(5,1,3,9)            178.052          -DE/DX =    0.0                 !
 ! D9    D(5,1,3,10)            57.625          -DE/DX =    0.0                 !
 ! D10   D(2,1,4,7)            180.0            -DE/DX =    0.0                 !
 ! D11   D(2,1,4,11)            60.2135         -DE/DX =    0.0                 !
 ! D12   D(2,1,4,12)           -60.2135         -DE/DX =    0.0                 !
 ! D13   D(3,1,4,7)            -62.1615         -DE/DX =    0.0                 !
 ! D14   D(3,1,4,11)           178.052          -DE/DX =    0.0                 !
 ! D15   D(3,1,4,12)            57.625          -DE/DX =    0.0                 !
 ! D16   D(5,1,4,7)             62.1615         -DE/DX =    0.0                 !
 ! D17   D(5,1,4,11)           -57.625          -DE/DX =    0.0                 !
 ! D18   D(5,1,4,12)          -178.052          -DE/DX =    0.0                 !
 ! D19   D(2,1,5,8)            180.0            -DE/DX =    0.0                 !
 ! D20   D(2,1,5,13)            60.2135         -DE/DX =    0.0                 !
 ! D21   D(2,1,5,14)           -60.2135         -DE/DX =    0.0                 !
 ! D22   D(3,1,5,8)             62.1615         -DE/DX =    0.0                 !
 ! D23   D(3,1,5,13)           -57.625          -DE/DX =    0.0                 !
 ! D24   D(3,1,5,14)          -178.052          -DE/DX =    0.0                 !
 ! D25   D(4,1,5,8)            -62.1615         -DE/DX =    0.0                 !
 ! D26   D(4,1,5,13)           178.052          -DE/DX =    0.0                 !
 ! D27   D(4,1,5,14)            57.625          -DE/DX =    0.0                 !
 --------------------------------------------------------------------------------
 GradGradGradGradGradGradGradGradGradGradGradGradGradGradGradGradGradGrad

                          Input orientation:                          
 ---------------------------------------------------------------------
 Center     Atomic      Atomic             Coordinates (Angstroms)
 Number     Number       Type             X           Y           Z
 ---------------------------------------------------------------------
      1          6           0       -0.000000    0.000000    0.371173
      2          1           0       -0.000000    0.000000    1.466467
      3          6           0       -0.000000    1.458003   -0.095594
      4          6           0        1.262668   -0.729001   -0.095594
      5          6           0       -1.262668   -0.729001   -0.095594
      6          1           0       -0.000000    1.515531   -1.187120
      7          1           0        1.312488   -0.757765   -1.187120
      8          1           0       -1.312488   -0.757765   -1.187120
      9          1           0        0.882095    1.990712    0.264011
     10          1           0       -0.882095    1.990712    0.264011
     11          1           0        1.282959   -1.759272    0.264011
     12          1           0        2.165054   -0.231439    0.264011
     13          1           0       -2.165054   -0.231439    0.264011
     14          1           0       -1.282959   -1.759272    0.264011
 ---------------------------------------------------------------------
                    Distance matrix (angstroms):
                    1          2          3          4          5
     1  C    0.000000
     2  H    1.095294   0.000000
     3  C    1.530897   2.136775   0.000000
     4  C    1.530897   2.136775   2.525335   0.000000
     5  C    1.530897   2.136775   2.525335   2.525335   0.000000
     6  H    2.173732   3.055872   1.093040   2.797085   2.797085
     7  H    2.173732   3.055872   2.797085   1.093040   2.797085
     8  H    2.173732   3.055872   2.797085   2.797085   1.093040
     9  H    2.180025   2.487353   1.091415   2.769655   3.482264
    10  H    2.180025   2.487353   1.091415   3.482264   2.769655
    11  H    2.180025   2.487353   3.482264   1.091415   2.769655
    12  H    2.180025   2.487353   2.769655   1.091415   3.482264
    13  H    2.180025   2.487353   2.769655   3.482264   1.091415
    14  H    2.180025   2.487353   3.482264   2.769655   1.091415
                    6          7          8          9         10
     6  H    0.000000
     7  H    2.624977   0.000000
     8  H    2.624977   2.624977   0.000000
     9  H    1.763425   3.137697   3.804747   0.000000
    10  H    1.763425   3.804747   3.137697   1.764190   0.000000
    11  H    3.804747   1.763425   3.137697   3.771349   4.330109
    12  H    3.137697   1.763425   3.804747   2.565918   3.771349
    13  H    3.137697   3.804747   1.763425   3.771349   2.565918
    14  H    3.804747   3.137697   1.763425   4.330109   3.771349
                   11         12         13         14
    11  H    0.000000
    12  H    1.764190   0.000000
    13  H    3.771349   4.330109   0.000000
    14  H    2.565918   3.771349   1.764190   0.000000
 Stoichiometry    C4H10
 Framework group  C3V[C3(CH),3SGV(CH),X(H6)]
 Deg. of freedom     8
 Full point group                 C3V     NOp   6
 Largest Abelian subgroup         CS      NOp   2
 Largest concise Abelian subgroup CS      NOp   2
                         Standard orientation:                         
 ---------------------------------------------------------------------
 Center     Atomic      Atomic             Coordinates (Angstroms)
 Number     Number       Type             X           Y           Z
 ---------------------------------------------------------------------
      1          6           0        0.000000    0.000000    0.371305
      2          1           0        0.000000    0.000000    1.466599
      3          6           0        0.000000    1.458003   -0.095462
      4          6           0        1.262668   -0.729001   -0.095462
      5          6           0       -1.262668   -0.729001   -0.095462
      6          1           0        0.000000    1.515531   -1.186988
      7          1           0        1.312488   -0.757765   -1.186988
      8          1           0       -1.312488   -0.757765   -1.186988
      9          1           0        0.882095    1.990712    0.264143
     10          1           0       -0.882095    1.990712    0.264143
     11          1           0        1.282959   -1.759272    0.264143
     12          1           0        2.165054   -0.231439    0.264143
     13          1           0       -2.165054   -0.231439    0.264143
     14          1           0       -1.282959   -1.759272    0.264143
 ---------------------------------------------------------------------
 Rotational constants (GHZ):           7.7872692           7.7872692           4.5066403

 **********************************************************************

            Population analysis using the SCF Density.

 **********************************************************************

 Orbital symmetries:
       Occupied  (A1) (E) (E) (A1) (A1) (E) (E) (A1) (A1) (E) (E)
                 (E) (E) (A2) (E) (E) (A1)
       Virtual   (A1) (A1) (E) (E) (A1) (E) (E) (E) (E) (A1) (A2)
                 (E) (E) (E) (E) (A1) (E) (E) (A1) (E) (E) (A2)
                 (E) (E) (A1) (A1) (A1) (E) (E) (A2) (E) (E) (A1)
                 (E) (E) (A1) (E) (E) (A1) (E) (E) (E) (E) (A1)
                 (A2) (E) (E) (E) (E) (E) (E) (A1) (A2) (E) (E)
                 (A1) (A2) (E) (E) (A2) (E) (E) (E) (E) (A1) (E)
                 (E) (A1) (A1) (A1) (E) (E) (E) (E) (A1) (A1) (E)
                 (E) (E) (E) (E) (E) (A2) (A1) (E) (E) (A2) (E)
                 (E) (A2) (A1) (E) (E) (A1) (E) (E) (E) (E) (A1)
                 (E) (E) (A1) (E) (E) (A1) (A1) (A2) (E) (E) (E)
                 (E) (A1) (E) (E) (E) (E) (A1) (A2) (E) (E) (E)
                 (E) (A2) (E) (E) (A1) (A1) (E) (E) (A2) (E) (E)
                 (A1) (E) (E) (A2) (E) (E) (A1) (E) (E) (E) (E)
                 (E) (E) (A2) (A1) (A2) (A1) (E) (E) (E) (E) (A2)
                 (E) (E) (E) (E) (A1) (E) (E) (E) (E) (A1) (A2)
                 (A1) (E) (E) (E) (E) (E) (E) (A2) (A1) (A1) (E)
                 (E) (E) (E) (E) (E) (A2) (E) (E) (E) (E) (A1)
                 (A1) (A2) (E) (E) (A1) (A1) (E) (E) (E) (E) (A2)
                 (A1) (E) (E) (E) (E) (A1) (E) (E) (E) (E) (A2)
                 (E) (E) (E) (E) (A1) (A1) (A1) (A2) (E) (E) (A2)
                 (E) (E) (E) (E) (E) (E) (A1) (E) (E) (E) (E) (A2)
                 (A1) (E) (E) (A1) (A1) (E) (E) (A2) (E) (E) (A1)
 The electronic state is 1-A1.
 Alpha  occ. eigenvalues --  -10.17268 -10.15564 -10.15564 -10.15563  -0.80296
 Alpha  occ. eigenvalues --   -0.68293  -0.68293  -0.56105  -0.46503  -0.43285
 Alpha  occ. eigenvalues --   -0.43285  -0.38541  -0.38541  -0.36509  -0.33056
[...]
 ! A18   A(11,4,12)            107.8433         -DE/DX =    0.0                 !
 ! A19   A(1,5,8)              110.769          -DE/DX =    0.0                 !
 ! A20   A(1,5,13)             111.3701         -DE/DX =    0.0                 !
 ! A21   A(1,5,14)             111.3701         -DE/DX =    0.0                 !
 ! A22   A(8,5,13)             107.6583         -DE/DX =    0.0                 !
 ! A23   A(8,5,14)             107.6583         -DE/DX =    0.0                 !
 ! A24   A(13,5,14)            107.8433         -DE/DX =    0.0                 !
 ! D1    D(2,1,3,6)            180.0            -DE/DX =    0.0                 !
 ! D2    D(2,1,3,9)             60.2135         -DE/DX =    0.0                 !
 ! D3    D(2,1,3,10)           -60.2135         -DE/DX =    0.0                 !
 ! D4    D(4,1,3,6)             62.1615         -DE/DX =    0.0                 !
 ! D5    D(4,1,3,9)            -57.625          -DE/DX =    0.0                 !
 ! D6    D(4,1,3,10)          -178.052          -DE/DX =    0.0                 !
 ! D7    D(5,1,3,6)            -62.1615         -DE/DX =    0.0                 !
 ! D8    D(5,1,3,9)            178.052          -DE/DX =    0.0                 !
 ! D9    D(5,1,3,10)            57.625          -DE/DX =    0.0                 !
 ! D10   D(2,1,4,7)            180.0            -DE/DX =    0.0                 !
 ! D11   D(2,1,4,11)            60.2135         -DE/DX =    0.0                 !
 ! D12   D(2,1,4,12)           -60.2135         -DE/DX =    0.0                 !
 ! D13   D(3,1,4,7)            -62.1615         -DE/DX =    0.0                 !
 ! D14   D(3,1,4,11)           178.052          -DE/DX =    0.0                 !
 ! D15   D(3,1,4,12)            57.625          -DE/DX =    0.0                 !
 ! D16   D(5,1,4,7)             62.1615         -DE/DX =    0.0                 !
 ! D17   D(5,1,4,11)           -57.625          -DE/DX =    0.0                 !
 ! D18   D(5,1,4,12)          -178.052          -DE/DX =    0.0                 !
 ! D19   D(2,1,5,8)            180.0            -DE/DX =    0.0                 !
 ! D20   D(2,1,5,13)            60.2135         -DE/DX =    0.0                 !
 ! D21   D(2,1,5,14)           -60.2135         -DE/DX =    0.0                 !
 ! D22   D(3,1,5,8)             62.1615         -DE/DX =    0.0                 !
 ! D23   D(3,1,5,13)           -57.625          -DE/DX =    0.0                 !
 ! D24   D(3,1,5,14)          -178.052          -DE/DX =    0.0                 !
 ! D25   D(4,1,5,8)            -62.1615         -DE/DX =    0.0                 !
 ! D26   D(4,1,5,13)           178.052          -DE/DX =    0.0                 !
 ! D27   D(4,1,5,14)            57.625          -DE/DX =    0.0                 !
 --------------------------------------------------------------------------------
 GradGradGradGradGradGradGradGradGradGradGradGradGradGradGradGradGradGrad


 ----------------------------------------------------------------------

 Electric dipole moment (input orientation):
 (Debye = 10**-18 statcoulomb cm , SI units = C m)
                  (au)            (Debye)         (10**-30 SI)
   Tot        0.559231D-01      0.142142D+00      0.474136D+00
   x          0.000000D+00      0.000000D+00      0.000000D+00
   y          0.000000D+00      0.000000D+00      0.000000D+00
   z          0.559231D-01      0.142142D+00      0.474136D+00

 Dipole polarizability, Alpha (input orientation).
 (esu units = cm**3 , SI units = C**2 m**2 J**-1)
 Alpha(0;0):
               (au)            (10**-24 esu)      (10**-40 SI)
   iso        0.523207D+02      0.775313D+01      0.862652D+01
   aniso      0.666433D+01      0.987553D+00      0.109880D+01
   xx         0.545423D+02      0.808233D+01      0.899280D+01
   yx         0.000000D+00      0.000000D+00      0.000000D+00
   yy         0.545421D+02      0.808230D+01      0.899277D+01
   zx         0.000000D+00      0.000000D+00      0.000000D+00
   zy        -0.985544D-04     -0.146043D-04     -0.162494D-04
   zz         0.478778D+02      0.709476D+01      0.789399D+01

 ----------------------------------------------------------------------

 Dipole orientation:
     6         -0.00000000          0.00000006          0.70141466
     1         -0.00000000          0.00000006          2.77122119
     6          0.00000000          2.75522629         -0.18064742
     6          2.38609591         -1.37761306         -0.18064742
     6         -2.38609591         -1.37761306         -0.18064742
     1          0.00000000          2.86393855         -2.24333097
     1          2.48024349         -1.43196919         -2.24333097
     1         -2.48024349         -1.43196919         -2.24333097
     1          1.66691808          3.76189965          0.49890836
     1         -1.66691808          3.76189965          0.49890836
     1          2.42444158         -3.32454314          0.49890836
     1          4.09135965         -0.43735634          0.49890836
     1         -4.09135965         -0.43735634          0.49890836
     1         -2.42444158         -3.32454314          0.49890836

 Electric dipole moment (dipole orientation):
 (Debye = 10**-18 statcoulomb cm , SI units = C m)
                  (au)            (Debye)         (10**-30 SI)
   Tot        0.559231D-01      0.142142D+00      0.474136D+00
   x          0.000000D+00      0.000000D+00      0.000000D+00
   y          0.000000D+00      0.000000D+00      0.000000D+00
   z          0.559231D-01      0.142142D+00      0.474136D+00

 Dipole polarizability, Alpha (dipole orientation).
 (esu units = cm**3 , SI units = C**2 m**2 J**-1)
 Alpha(0;0):
               (au)            (10**-24 esu)      (10**-40 SI)
   iso        0.523207D+02      0.775313D+01      0.862652D+01
   aniso      0.666433D+01      0.987553D+00      0.109880D+01
   xx         0.545423D+02      0.808233D+01      0.899280D+01
   yx         0.000000D+00      0.000000D+00      0.000000D+00
   yy         0.545421D+02      0.808230D+01      0.899277D+01
   zx         0.000000D+00      0.000000D+00      0.000000D+00
   zy        -0.985544D-04     -0.146043D-04     -0.162494D-04
   zz         0.478778D+02      0.709476D+01      0.789399D+01

 ----------------------------------------------------------------------
 1\1\GINC-GAMBA\Freq\RB3LYP\Gen\C4H10\IRIKURA\15-Jun-2022\0\\#N Geom=Al
 lCheck Guess=TCheck SCRF=Check GenChk RB3LYP/ChkBas Freq\\i-butane, B3
 LYP/pcseg-2\\0,1\C,0.,0.0000000294,0.3711726556\H,0.,0.0000000294,1.46
 6467098\C,0.,1.458002964,-0.0955944964\C,1.2626675802,-0.7290014379,-0
 .0955944964\C,-1.2626675802,-0.7290014379,-0.0955944964\H,0.,1.5155310
 138,-1.1871196273\H,1.3124883327,-0.7577654628,-1.1871196273\H,-1.3124
 883327,-0.7577654628,-1.1871196273\H,0.8820950587,1.9907115635,0.26401
 09359\H,-0.8820950587,1.9907115635,0.2640109359\H,1.2829592308,-1.7592
 72467,0.2640109359\H,2.1650542895,-0.2314390082,0.2640109359\H,-2.1650
 542895,-0.2314390082,0.2640109359\H,-1.2829592308,-1.759272467,0.26401
 09359\\Version=ES64L-G16RevB.01\State=1-A1\HF=-158.5256419\RMSD=5.867e
 -09\RMSF=1.426e-05\ZeroPoint=0.1310017\Thermal=0.1367269\Dipole=0.,0.,
 0.0559231\DipoleDeriv=0.1679194,0.,0.,0.,0.1679228,-0.0000037,0.,-0.00
 00097,0.1084811,-0.01122,0.,0.,0.,-0.0112148,0.0000009,0.,0.0000002,-0
 .1965504,0.0623027,0.,0.,0.,-0.0073796,0.0349315,0.,0.0102108,0.120080
 8,0.0100448,0.0301656,0.0302501,0.0301708,0.0448767,-0.0174665,0.00884
 1,-0.0051025,0.1200752,0.0100448,-0.0301656,-0.0302501,-0.0301708,0.04
 48767,-0.0174665,-0.008841,-0.0051025,0.1200752,0.0620613,0.,0.,0.,0.0
 281646,-0.0342064,0.,0.0459115,-0.1624981,0.0366403,0.0146778,-0.02962
 3,0.0146805,0.0535885,0.0171031,0.0397572,-0.0229539,-0.1624951,0.0366
 403,-0.0146778,0.029623,-0.0146805,0.0535885,0.0171031,-0.0397572,-0.0
 229539,-0.1624951,-0.0940154,-0.1238821,-0.0588487,-0.0759433,-0.03079
 76,-0.0110783,-0.0666474,-0.0337313,0.035888,-0.0940154,0.1238821,0.05
 88487,0.0759433,-0.0307976,-0.0110783,0.0666474,-0.0337313,0.035888,0.
 0399256,-0.0013847,0.0198295,0.0465485,-0.1647346,0.0565053,0.0041155,
 0.0745818,0.0358885,-0.133131,-0.0533588,-0.0390183,-0.1013,0.0083186,
 -0.0454254,-0.0625371,-0.0408528,0.0358885,-0.133131,0.0533588,0.03901
 83,0.1013,0.0083186,-0.0454254,0.0625371,-0.0408528,0.0358885,0.039925
 6,0.0013847,-0.0198295,-0.0465485,-0.1647346,0.0565053,-0.0041155,0.07
 45818,0.0358885\Polar=54.5422626,0.,54.5420614,0.,-0.0000986,47.877827
 3\Quadrupole=-0.1659943,-0.1659943,0.3319886,0.,0.,0.\PG=C03V [C3(C1H1
 ),3SGV(C1H1),X(H6)]\NImag=0\\0.46243551,0.,0.46243611,0.,-0.00000025,0
 .58307493,-0.04730939,0.,0.,0.05701831,0.,-0.04730958,-0.00000025,0.,0
 .05701824,0.,-0.00000018,-0.29204973,0.,0.00000017,0.31918838,-0.07714
 617,0.,0.,-0.00005053,0.,0.,0.57109618,0.,-0.16509998,0.03012993,0.,-0
 .00390108,0.00178301,0.,0.46898909,0.,0.03237190,-0.09028986,0.,0.0340
 7602,-0.01113423,0.,0.03412776,0.54701210,-0.14311099,0.03808499,0.026
 09330,-0.00293847,0.00166720,0.00154410,-0.00245838,0.00652780,-0.0003
 8885,0.49451586,0.03808492,-0.09913459,-0.01506481,0.00166740,-0.00101
 314,-0.00089157,0.03017376,-0.02364803,-0.00990568,0.04421367,0.545569
 41,0.02803524,-0.01618614,-0.09028992,0.02951071,-0.01703794,-0.011134
 19,-0.00877299,0.00461609,0.00363787,0.02955550,-0.01706388,0.54701210
 ,-0.14311100,-0.03808499,-0.02609330,-0.00293847,-0.00166720,-0.001544
 10,-0.00245838,-0.00652780,0.00038885,-0.03424286,-0.01182298,-0.00838
 414,0.49451586,-0.03808492,-0.09913459,-0.01506481,-0.00166740,-0.0010
 1314,-0.00089157,-0.03017376,-0.02364803,-0.00990568,0.01182298,0.0081
 3645,0.00528959,-0.04421367,0.54556940,-0.02803524,-0.01618614,-0.0902
 8992,-0.02951071,-0.01703794,-0.01113419,0.00877299,0.00461609,0.00363
 787,0.00838414,0.00528959,0.00363787,-0.02955550,-0.01706388,0.5470121
 0,-0.00096226,0.,0.,0.00064153,0.,0.,-0.04742889,0.,0.,0.00018645,-0.0
 0019836,-0.00100641,0.00018645,0.00019836,0.00100641,0.04608779,0.,-0.
 00271752,0.03351667,0.,-0.00609168,0.00223166,0.,-0.04685584,0.0083006
 7,-0.00089066,0.00185990,0.00087385,0.00089066,0.00185990,0.00087385,0
 .,0.05163725,0.,0.00121373,-0.01252239,0.,0.00251165,0.00104056,0.,0.0
 0896188,-0.30041500,0.00028276,-0.00074665,0.00072684,-0.00028276,-0.0
 0074665,0.00072684,0.,-0.01249506,0.32927351,-0.00227848,0.00076004,0.
 02902617,-0.00440840,0.00291557,0.00193267,0.00096998,-0.00134303,0.00
 025357,-0.04699910,-0.00024814,0.00718859,0.00191310,-0.00010622,0.001
 25998,0.00020384,0.00026486,-0.00064600,0.05024988,0.00075989,-0.00140
 092,-0.01675827,0.00291558,-0.00104179,-0.00111581,-0.00065073,0.00107
 637,-0.00130850,-0.00024814,-0.04728563,-0.00415033,-0.00079852,0.0001
 3326,0.00043465,0.00017119,-0.00004791,0.00052357,-0.00240299,0.047475
 15,0.00105078,-0.00060667,-0.01252206,0.00217516,-0.00125586,0.0010405
 1,-0.00050523,0.00061820,0.00072684,0.00776121,-0.00448094,-0.30041500
 ,-0.00078799,0.00012845,0.00072684,0.00013042,-0.00082124,0.00051038,-
 0.01082104,0.00624753,0.32927351,-0.00227848,-0.00076004,-0.02902617,-
 0.00440841,-0.00291557,-0.00193267,0.00096998,0.00134303,-0.00025357,0
 .00191310,0.00010622,-0.00125998,-0.04699910,0.00024814,-0.00718859,0.
 00020384,-0.00026486,0.00064600,-0.00017378,0.00004684,0.00077643,0.05
 024988,-0.00075989,-0.00140092,-0.01675827,-0.00291558,-0.00104179,-0.
 00111581,0.00065073,0.00107637,-0.00130850,0.00079852,0.00013326,0.000
 43465,0.00024814,-0.04728563,-0.00415033,-0.00017119,-0.00004791,0.000
 52357,-0.00004684,0.00032972,0.00029767,0.00240299,0.04747515,-0.00105
 078,-0.00060667,-0.01252206,-0.00217516,-0.00125586,0.00104052,0.00050
 523,0.00061820,0.00072684,0.00078799,0.00012844,0.00072684,-0.00776121
 ,-0.00448094,-0.30041500,-0.00013042,-0.00082124,0.00051038,-0.0007764
 3,0.00029767,0.00051038,0.01082104,0.00624753,0.32927351,-0.00061748,0
 .00099251,0.00059747,0.00011804,-0.00033264,0.00051240,-0.21779105,-0.
 10005801,-0.07092361,0.00078059,0.00064949,0.00013484,0.00093658,-0.00
 035027,0.00085928,0.00053532,0.00105452,0.00008991,-0.00002987,0.00000
 694,0.00002431,0.00001496,0.00013921,-0.00004485,0.23555142,-0.0258026
 4,-0.01479545,-0.01216496,0.00016274,0.00134652,0.00027155,-0.09860369
 ,-0.10509218,-0.04135158,-0.00153785,0.00145021,-0.00054647,0.00166411
 ,-0.00602548,0.00303660,0.00156230,0.00005346,0.00004115,0.00009846,-0
 .00008837,-0.00000585,0.00029527,0.00015699,-0.00004588,0.11048395,0.1
 1572399,0.00959167,0.00543502,0.00290174,0.00039279,-0.00062982,0.0005
 2376,-0.07103793,-0.04212374,-0.07673822,0.00003922,-0.00039325,-0.000
 01428,-0.00009588,0.00185108,-0.00019868,-0.02700000,-0.01538547,-0.01
 025686,-0.00015094,-0.00005480,-0.00005427,0.00020186,0.00033196,0.000
 38555,0.07842577,0.04436710,0.07923711,-0.00061748,-0.00099251,-0.0005
 9747,0.00011804,0.00033264,-0.00051240,-0.21779105,0.10005801,0.070923
 61,0.00093658,0.00035027,-0.00085928,0.00078059,-0.00064949,-0.0001348
 4,0.00053532,-0.00105452,-0.00008991,0.00001496,-0.00013921,0.00004485
 ,-0.00002987,-0.00000694,-0.00002431,-0.02068475,0.01235952,0.00933204
 ,0.23555142,0.02580264,-0.01479545,-0.01216496,-0.00016274,0.00134652,
 0.00027155,0.09860369,-0.10509218,-0.04135158,-0.00166411,-0.00602549,
 0.00303659,0.00153785,0.00145021,-0.00054647,-0.00156230,0.00005346,0.
 00004115,-0.00029527,0.00015699,-0.00004588,-0.00009846,-0.00008837,-0
 .00000585,-0.01235952,0.00777548,0.00632908,-0.11048395,0.11572399,-0.
 00959167,0.00543502,0.00290174,-0.00039279,-0.00062982,0.00052376,0.07
 103793,-0.04212374,-0.07673822,0.00009588,0.00185108,-0.00019868,-0.00
 003922,-0.00039325,-0.00001428,0.02700000,-0.01538547,-0.01025686,-0.0
 0020186,0.00033196,0.00038555,0.00015094,-0.00005480,-0.00005427,-0.00
 933204,0.00632908,0.00357094,-0.07842577,0.04436710,0.07923711,-0.0005
 0802,0.02573949,-0.01083386,0.00111295,-0.00073722,-0.00002108,-0.0048
 5388,0.00167901,0.00220013,-0.04724386,0.00013823,-0.00034971,0.001667
 48,0.00102580,-0.00054068,-0.00006665,-0.00024814,-0.00001730,-0.00095
 919,-0.00069944,-0.00000932,-0.00011938,-0.00004678,-0.00001722,0.0002
 1223,0.00013652,0.00021756,0.00011560,0.00184358,-0.00034242,0.0499989
 4,-0.00105559,-0.01490507,0.00556490,-0.00024176,0.00035167,-0.0005794
 7,0.00369339,-0.00023502,-0.00226246,0.00159255,-0.27563937,0.08209744
 ,-0.00116153,0.00056332,0.00015646,-0.00009209,0.00023860,0.00006178,-
 0.00019167,0.00154798,-0.00009844,0.00004474,0.00000114,-0.00001813,-0
 .00007104,0.00041218,-0.00001172,0.00021546,-0.00107318,0.00048717,-0.
 00335517,0.30127647,-0.00008906,-0.01102408,0.00290175,-0.00074181,-0.
 00002526,0.00052374,0.00165102,-0.00084250,-0.00019868,-0.00096127,0.0
 8258252,-0.07673822,-0.00036017,0.00016266,-0.00001428,0.00018655,-0.0
 0034079,0.00038555,0.00017579,0.03107542,-0.01025686,0.00002801,0.0001
 5812,-0.00005427,0.00012518,0.00028628,-0.00009819,0.00025069,-0.00054
 013,0.00061693,-0.00078985,-0.09010226,0.07923711,-0.02199426,-0.01346
 071,-0.01023655,0.00096591,-0.00032663,0.00049129,0.00089814,-0.001605
 72,-0.00040584,-0.21928994,-0.09773830,-0.07127332,-0.00371606,0.00435
 032,0.00305941,-0.00002810,0.00009744,0.00000709,0.00130705,0.00111674
 ,0.00008059,0.00030962,0.00012515,-0.00006216,0.00046762,0.00105825,0.
 00005196,0.00039054,0.00003357,0.00031052,0.00066042,0.00003588,0.0008
 1513,0.24136276,0.01333426,0.00658122,0.00659996,-0.00082213,0.0004987
 1,0.00030798,0.00058162,0.00133267,0.00039001,-0.09919263,-0.10359329,
 -0.04074586,0.00233593,-0.00137284,-0.00077414,0.00000592,-0.00009014,
 0.00002398,0.00060897,-0.00071826,0.00005729,-0.00003090,-0.00013767,-
 0.00001591,-0.00011359,-0.00007778,-0.00016781,-0.00017399,0.00023386,
 -0.00003473,-0.02468317,-0.01356970,-0.01124632,0.10712878,0.10991266,
 0.00950259,0.00558917,0.00290173,-0.00034904,0.00065506,0.00052373,-0.
 00032095,0.00023059,-0.00001428,-0.07199920,-0.04045878,-0.07673822,0.
 00155514,-0.00100858,-0.00019868,-0.00012293,-0.00010331,-0.00005427,-
 0.02682421,-0.01568995,-0.01025686,0.00038841,0.00000884,0.00038555,-0
 .00011935,0.00012891,0.00022266,0.00009863,0.00019427,-0.00009819,0.01
 014716,0.00491724,0.00357094,0.07763593,0.04573516,0.07923711,-0.02199
 426,0.01346071,0.01023655,0.00096591,0.00032663,-0.00049129,0.00089814
 ,0.00160572,0.00040584,-0.00371606,-0.00435032,-0.00305941,-0.21928994
 ,0.09773830,0.07127332,-0.00002810,-0.00009744,-0.00000709,0.00030962,
 -0.00012515,0.00006216,0.00130705,-0.00111674,-0.00008059,0.00039054,-
 0.00003357,-0.00031052,0.00046762,-0.00105825,-0.00005196,0.00033384,0
 .00000083,-0.00011893,-0.00166758,0.00081406,0.00059312,0.24136276,-0.
 01333426,0.00658122,0.00659996,0.00082213,0.00049871,0.00030798,-0.000
 58162,0.00133267,0.00039001,-0.00233593,-0.00137284,-0.00077414,0.0991
 9263,-0.10359329,-0.04074586,-0.00000592,-0.00009014,0.00002398,0.0000
 3090,-0.00013767,-0.00001591,-0.00060897,-0.00071826,0.00005729,0.0001
 7399,0.00023386,-0.00003473,0.00011359,-0.00007778,-0.00016781,-0.0002
 0673,0.00029057,-0.00018255,-0.00081406,0.00071000,0.00005296,-0.10712
 878,0.10991266,-0.00950259,0.00558917,0.00290174,0.00034904,0.00065506
 ,0.00052373,0.00032095,0.00023059,-0.00001428,-0.00155514,-0.00100858,
 -0.00019868,0.07199920,-0.04045878,-0.07673822,0.00012293,-0.00010331,
 -0.00005427,-0.00038841,0.00000884,0.00038555,0.02682421,-0.01568995,-
 0.01025686,-0.00009863,0.00019427,-0.00009819,0.00011935,0.00012891,0.
 00022266,0.00018533,-0.00025155,-0.00009819,-0.00059312,0.00005296,0.0
 0061693,-0.07763593,0.04573516,0.07923711,-0.00050802,-0.02573949,0.01
 083386,0.00111295,0.00073722,0.00002108,-0.00485388,-0.00167901,-0.002
 20013,0.00166748,-0.00102580,0.00054068,-0.04724386,-0.00013823,0.0003
 4971,-0.00006665,0.00024814,0.00001730,-0.00011938,0.00004678,0.000017
 22,-0.00095919,0.00069944,0.00000932,0.00011560,-0.00184358,0.00034242
 ,0.00021223,-0.00013652,-0.00021756,-0.00035048,0.00058592,-0.00017131
 ,0.00033384,0.00020673,-0.00018533,0.00066042,0.02468317,-0.01014716,0
 .04999894,0.00105559,-0.01490507,0.00556490,0.00024176,0.00035167,-0.0
 0057947,-0.00369339,-0.00023502,-0.00226246,0.00116153,0.00056332,0.00
 015646,-0.00159255,-0.27563937,0.08209744,0.00009209,0.00023860,0.0000
 6178,-0.00004474,0.00000114,-0.00001813,0.00019167,0.00154798,-0.00009
 844,-0.00021546,-0.00107318,0.00048717,0.00007104,0.00041218,-0.000011
 72,-0.00058592,0.00074032,0.00003891,-0.00000083,0.00029057,-0.0002515
 5,-0.00003588,-0.01356970,0.00491724,0.00335517,0.30127647,0.00008906,
 -0.01102408,0.00290175,0.00074181,-0.00002526,0.00052374,-0.00165102,-
 0.00084250,-0.00019868,0.00036017,0.00016266,-0.00001428,0.00096127,0.
 08258252,-0.07673822,-0.00018655,-0.00034079,0.00038555,-0.00002801,0.
 00015812,-0.00005427,-0.00017579,0.03107542,-0.01025686,-0.00025069,-0
 .00054013,0.00061693,-0.00012518,0.00028628,-0.00009819,0.00017131,0.0
 0003891,0.00022266,0.00011893,-0.00018255,-0.00009819,-0.00081513,-0.0
 1124632,0.00357094,0.00078985,-0.09010226,0.07923711\\0.,0.,-0.0000419
 2,0.,0.,-0.00003584,0.,-0.00003270,0.00000947,-0.00002832,0.00001635,0
 .00000947,0.00002832,0.00001635,0.00000947,0.,-0.00001086,0.00001084,-
 0.00000940,0.00000543,0.00001084,0.00000940,0.00000543,0.00001084,0.00
 000648,0.00001304,0.00000280,-0.00000648,0.00001304,0.00000280,0.00000
 805,-0.00001213,0.00000280,0.00001453,-0.00000091,0.00000280,-0.000014
 53,-0.00000091,0.00000280,-0.00000805,-0.00001213,0.00000280\\\@


 I think that all right-thinking people in this
 country are sick and tired of being told that
 ordinary, decent people are fed up in this country
 with being sick and tired.  I'm certainly not!
 But I'm sick and tired of being told that I am!
                               -- Monty Python
 Job cpu time:       0 days  0 hours 17 minutes 41.1 seconds.
 Elapsed time:       0 days  0 hours  4 minutes 25.3 seconds.
 File lengths (MBytes):  RWF=     44 Int=      0 D2E=      0 Chk=      7 Scr=      1
 Normal termination of Gaussian 16 at Wed Jun 15 10:33:48 2022.
