 Entering Gaussian System, Link 0=g16
 AtFile(1): pcseg2.gbs
            -H     0
            S   4   1.00
                  0.754732D+02           0.427821D-02
                  0.113575D+02           0.328672D-01
                  0.260081D+01           0.159578D+00
                  0.735503D+00           0.500000D+00
            S   1   1.00
                  0.231761D+00           1.0000000
            S   1   1.00
                  0.741675D-01           1.0000000
            P   1   1.00
                  0.160000D+01           1.0000000
            P   1   1.00
                  0.450000D+00           1.0000000
            D   1   1.00
                  0.125000D+01           1.0000000
            ****
            -C     0
            S   7   1.00
                  0.731999D+04           0.695369D-03
                  0.109818D+04           0.537138D-02
                  0.250014D+03           0.274734D-01
                  0.707586D+02           0.105078D+00
                  0.228595D+02           0.291262D+00
                  0.803936D+01           0.500000D+00
                  0.289309D+01           0.362224D+00
            S   2   1.00
                  0.521640D+01          -0.957844D-01
                  0.556124D+00           0.500000D+00
            S   1   1.00
                  0.228813D+00           1.0000000
            S   1   1.00
                  0.936338D-01           1.0000000
            P   4   1.00
                  0.339855D+02           0.818395D-02
                  0.772957D+01           0.586921D-01
                  0.224954D+01           0.222514D+00
                  0.767681D+00           0.500000D+00
            P   1   1.00
                  0.263283D+00           1.0000000
            P   1   1.00
                  0.848744D-01           1.0000000
            D   1   1.00
                  0.140000D+01           1.0000000
            D   1   1.00
                  0.450000D+00           1.0000000
            F   1   1.00
                  0.950000D+00           1.0000000
            ****
            -O     0
            S   7   1.00
                  0.135887D+05           0.665492D-03
                  0.203847D+04           0.514222D-02
                  0.464041D+03           0.263472D-01
                  0.131339D+03           0.101500D+00
                  0.425340D+02           0.285877D+00
                  0.150429D+02           0.500000D+00
                  0.546616D+01           0.368211D+00
            S   2   1.00
                  0.100915D+02          -0.100084D+00
                  0.110429D+01           0.500000D+00
            S   1   1.00
                  0.448082D+00           1.0000000
            S   1   1.00
                  0.175325D+00           1.0000000
            P   4   1.00
                  0.608220D+02           0.908253D-02
                  0.140332D+02           0.645878D-01
                  0.418244D+01           0.241502D+00
                  0.142490D+01           0.500000D+00
            P   1   1.00
                  0.478741D+00           1.0000000
            P   1   1.00
                  0.146257D+00           1.0000000
            D   1   1.00
                  0.220000D+01           1.0000000
            D   1   1.00
                  0.650000D+00           1.0000000
            F   1   1.00
                  0.110000D+01           1.0000000
            ****
            -N     0
            S   7   1.00
                  0.101643D+05           0.682757D-03
                  0.152481D+04           0.527488D-02
                  0.347119D+03           0.270037D-01
                  0.982389D+02           0.103673D+00
                  0.317799D+02           0.289575D+00
                  0.112240D+02           0.500000D+00
                  0.406611D+01           0.364621D+00
            S   2   1.00
                  0.747898D+01          -0.975681D-01
                  0.805040D+00           0.500000D+00
            S   1   1.00
                  0.324626D+00           1.0000000
            S   1   1.00
                  0.128132D+00           1.0000000
            P   4   1.00
                  0.482704D+02           0.829547D-02
                  0.110815D+02           0.596223D-01
                  0.326643D+01           0.227889D+00
                  0.111680D+01           0.500000D+00
            P   1   1.00
                  0.382049D+00           1.0000000
            P   1   1.00
                  0.121222D+00           1.0000000
            D   1   1.00
                  0.180000D+01           1.0000000
            D   1   1.00
                  0.550000D+00           1.0000000
            F   1   1.00
                  0.102000D+01           1.0000000
            ****
            -F     0
            S   7   1.00
                  0.174507D+05           0.655972D-03
                  0.261768D+04           0.506944D-02
                  0.595857D+03           0.259899D-01
                  0.168651D+03           0.100353D+00
                  0.546654D+02           0.284095D+00
                  0.193717D+02           0.500000D+00
                  0.706202D+01           0.370721D+00
            S   2   1.00
                  0.131197D+02          -0.101997D+00
                  0.145046D+01           0.500000D+00
            S   1   1.00
                  0.588255D+00           1.0000000
            S   1   1.00
                  0.227960D+00           1.0000000
            P   4   1.00
                  0.779407D+02           0.931135D-02
                  0.180425D+02           0.663964D-01
                  0.542342D+01           0.246386D+00
                  0.184876D+01           0.500000D+00
            P   1   1.00
                  0.617455D+00           1.0000000
            P   1   1.00
                  0.185496D+00           1.0000000
            D   1   1.00
                  0.280000D+01           1.0000000
            D   1   1.00
                  0.800000D+00           1.0000000
            F   1   1.00
                  0.120000D+01           1.0000000
            ****
            -Cl     0
            S   8   1.00
                  0.154272D+06           0.222473D-03
                  0.231232D+05           0.172590D-02
                  0.526257D+04           0.899286D-02
                  0.148995D+04           0.367724D-01
                  0.485417D+03           0.121446D+00
                  0.174634D+03           0.304148D+00
                  0.672393D+02           0.500000D+00
                  0.265780D+02           0.360252D+00
            S   3   1.00
                  0.131826D+03          -0.531330D-01
                  0.400703D+02          -0.233346D+00
                  0.789448D+01           0.500000D+00
            S   2   1.00
                  0.427711D+01           0.500000D+00
                  0.196233D+01           0.370517D+00
            S   1   1.00
                  0.520793D+00           1.0000000
            S   1   1.00
                  0.181633D+00           1.0000000
            P   7   1.00
                  0.124440D+04           0.988206D-03
                  0.295109D+03           0.829674D-02
                  0.947224D+02           0.430906D-01
                  0.352588D+02           0.148443D+00
                  0.144211D+02           0.344744D+00
                  0.610371D+01           0.500000D+00
                  0.258886D+01           0.348278D+00
            P   2   1.00
                  0.109447D+02          -0.196768D-01
                  0.104413D+01           0.500000D+00
            P   1   1.00
                  0.376184D+00           1.0000000
            P   1   1.00
                  0.120613D+00           1.0000000
            D   1   1.00
                  0.231000D+01           1.0000000
            D   1   1.00
                  0.520000D+00           1.0000000
            F   1   1.00
                  0.720000D+00           1.0000000
            ****
            -S     0
            S   8   1.00
                  0.134700D+06           0.226231D-03
                  0.201904D+05           0.175488D-02
                  0.459528D+04           0.914190D-02
                  0.130109D+04           0.373551D-01
                  0.423902D+03           0.123121D+00
                  0.152485D+03           0.306801D+00
                  0.586925D+02           0.500000D+00
                  0.231461D+02           0.354358D+00
            S   3   1.00
                  0.116327D+03          -0.491772D-01
                  0.352841D+02          -0.215962D+00
                  0.677831D+01           0.500000D+00
            S   2   1.00
                  0.360404D+01           0.500000D+00
                  0.164871D+01           0.366278D+00
            S   1   1.00
                  0.421821D+00           1.0000000
            S   1   1.00
                  0.147554D+00           1.0000000
            P   7   1.00
                  0.104863D+04           0.105273D-02
                  0.248717D+03           0.879338D-02
                  0.797887D+02           0.453358D-01
                  0.296023D+02           0.154476D+00
                  0.120627D+02           0.352366D+00
                  0.507628D+01           0.500000D+00
                  0.213375D+01           0.346429D+00
            P   2   1.00
                  0.928958D+01          -0.185932D-01
                  0.837819D+00           0.500000D+00
            P   1   1.00
                  0.301495D+00           1.0000000
            P   1   1.00
                  0.974740D-01           1.0000000
            D   1   1.00
                  0.210000D+01           1.0000000
            D   1   1.00
                  0.480000D+00           1.0000000
            F   1   1.00
                  0.660000D+00           1.0000000
            ****
            -Br     0
            S    10   1.00
                  0.233625D+07           0.532336D-04
                  0.349961D+06           0.413715D-03
                  0.796444D+05           0.217123D-02
                  0.225555D+05           0.910109D-02
                  0.735546D+04           0.323789D-01
                  0.265352D+04           0.988755D-01
                  0.103517D+04           0.248138D+00
                  0.422205D+03           0.474328D+00
                  0.180035D+03           0.500000D+00
                  0.793308D+02           0.187769D+00
            S    4   1.00
                  0.620834D+03          -0.226511D-01
                  0.190829D+03          -0.109497D+00
                  0.312505D+02           0.500000D+00
                  0.135270D+02           0.492812D+00
            S    2   1.00
                  0.216097D+02          -0.165418D+00
                  0.372566D+01           0.500000D+00
            S    1   1.00
                  0.169770D+01           1.0000000
            S    1   1.00
                  0.489332D+00           1.0000000
            S    1   1.00
                  0.175712D+00           1.0000000
            P    8   1.00
                  0.960829D+04           0.478974D-03
                  0.227618D+04           0.417853D-02
                  0.736723D+03           0.229315D-01
                  0.281579D+03           0.892653D-01
                  0.118395D+03           0.255288D+00
                  0.527481D+02           0.479074D+00
                  0.245098D+02           0.500000D+00
                  0.112009D+02           0.200944D+00
            P    4   1.00
                  0.587849D+02          -0.189674D-01
                  0.918962D+01           0.264104D+00
                  0.413895D+01           0.500000D+00
                  0.184225D+01           0.319316D+00
            P    1   1.00
                  0.713862D+00           1.0000000
            P    1   1.00
                  0.274232D+00           1.0000000
            P    1   1.00
                  0.944411D-01           1.0000000
            D    7   1.00
                  0.398470D+03           0.204066D-02
                  0.118967D+03           0.175171D-01
                  0.450197D+02           0.829708D-01
                  0.190320D+02           0.236284D+00
                  0.855686D+01           0.428468D+00
                  0.382950D+01           0.500000D+00
                  0.166291D+01           0.349360D+00
            D    1   1.00
                  0.672953D+00           1.0000000
            D    1   1.00
                  0.252000D+00           1.0000000
            F    1   1.00
                  0.530000D+00           1.0000000
            ****
            -Si     0
            S    8   1.00
                  0.996133D+05           0.235546D-03
                  0.149311D+05           0.182707D-02
                  0.339820D+04           0.951425D-02
                  0.962140D+03           0.388172D-01
                  0.313430D+03           0.127328D+00
                  0.112683D+03           0.313522D+00
                  0.433372D+02           0.500000D+00
                  0.170029D+02           0.340347D+00
            S    3   1.00
                  0.884208D+02          -0.404451D-01
                  0.266756D+02          -0.178059D+00
                  0.479640D+01           0.500000D+00
            S    2   1.00
                  0.239385D+01           0.500000D+00
                  0.108333D+01           0.338016D+00
            S    1   1.00
                  0.252420D+00           1.0000000
            S    1   1.00
                  0.891210D-01           1.0000000
            P    7   1.00
                  0.709901D+03           0.123028D-02
                  0.168426D+03           0.101366D-01
                  0.539946D+02           0.511840D-01
                  0.198646D+02           0.169967D+00
                  0.801369D+01           0.370717D+00
                  0.331870D+01           0.500000D+00
                  0.136112D+01           0.344128D+00
            P    2   1.00
                  0.622158D+01          -0.166609D-01
                  0.503049D+00           0.500000D+00
            P    1   1.00
                  0.179848D+00           1.0000000
            P    1   1.00
                  0.591912D-01           1.0000000
            D    1   1.00
                  0.168000D+01           1.0000000
            D    1   1.00
                  0.380000D+00           1.0000000
            F    1   1.00
                  0.540000D+00           1.0000000
            ****
            -P     0
            S    8   1.00
                  0.116416D+06           0.230715D-03
                  0.174500D+05           0.178960D-02
                  0.397149D+04           0.932116D-02
                  0.112447D+04           0.380591D-01
                  0.366347D+03           0.125148D+00
                  0.131757D+03           0.310022D+00
                  0.506988D+02           0.500000D+00
                  0.199436D+02           0.347528D+00
            S    3   1.00
                  0.101878D+03          -0.446755D-01
                  0.308249D+02          -0.196376D+00
                  0.573688D+01           0.500000D+00
            S    2   1.00
                  0.296868D+01           0.500000D+00
                  0.135315D+01           0.355098D+00
            S    1   1.00
                  0.332196D+00           1.0000000
            S    1   1.00
                  0.116229D+00           1.0000000
            P    7   1.00
                  0.873928D+03           0.112375D-02
                  0.207298D+03           0.933330D-02
                  0.664628D+02           0.477213D-01
                  0.245665D+02           0.160733D+00
                  0.996820D+01           0.359760D+00
                  0.416536D+01           0.500000D+00
                  0.173022D+01           0.346593D+00
            P    2   1.00
                  0.772530D+01          -0.175718D-01
                  0.657252D+00           0.500000D+00
            P    1   1.00
                  0.239903D+00           1.0000000
            P    1   1.00
                  0.800988D-01           1.0000000
            D    1   1.00
                  0.189000D+01           1.0000000
            D    1   1.00
                  0.430000D+00           1.0000000
            F    1   1.00
                  0.600000D+00           1.0000000
            ****
            
 Initial command:
 /usr/local/apps/g16_b01_avx/g16/l1.exe "/wrk/irikura/Gau-390302.inp" -scrdir="/wrk/irikura/"
 Entering Link 1 = /usr/local/apps/g16_b01_avx/g16/l1.exe PID=    390304.
  
 Copyright (c) 1988-2017, Gaussian, Inc.  All Rights Reserved.
  
 This is part of the Gaussian(R) 16 program.  It is based on
 the Gaussian(R) 09 system (copyright 2009, Gaussian, Inc.),
 the Gaussian(R) 03 system (copyright 2003, Gaussian, Inc.),
 the Gaussian(R) 98 system (copyright 1998, Gaussian, Inc.),
 the Gaussian(R) 94 system (copyright 1995, Gaussian, Inc.),
 the Gaussian 92(TM) system (copyright 1992, Gaussian, Inc.),
 the Gaussian 90(TM) system (copyright 1990, Gaussian, Inc.),
 the Gaussian 88(TM) system (copyright 1988, Gaussian, Inc.),
 the Gaussian 86(TM) system (copyright 1986, Carnegie Mellon
 University), and the Gaussian 82(TM) system (copyright 1983,
 Carnegie Mellon University). Gaussian is a federally registered
 trademark of Gaussian, Inc.
  
 This software contains proprietary and confidential information,
 including trade secrets, belonging to Gaussian, Inc.
  
 This software is provided under written license and may be
 used, copied, transmitted, or stored only in accord with that
 written license.
  
 The following legend is applicable only to US Government
 contracts under FAR:
  
                    RESTRICTED RIGHTS LEGEND
  
 Use, reproduction and disclosure by the US Government is
 subject to restrictions as set forth in subparagraphs (a)
 and (c) of the Commercial Computer Software - Restricted
 Rights clause in FAR 52.227-19.
  
 Gaussian, Inc.
 340 Quinnipiac St., Bldg. 40, Wallingford CT 06492
  
  
 ---------------------------------------------------------------
 Warning -- This program may not be used in any manner that
 competes with the business of Gaussian, Inc. or will provide
 assistance to any competitor of Gaussian, Inc.  The licensee
 of this program is prohibited from giving any competitor of
 Gaussian, Inc. access to this program.  By using this program,
 the user acknowledges that Gaussian, Inc. is engaged in the
 business of creating and licensing software in the field of
 computational chemistry and represents and warrants to the
 licensee that it is not a competitor of Gaussian, Inc. and that
 it will not use this program in any manner prohibited above.
 ---------------------------------------------------------------
  

 Cite this work as:
 Gaussian 16, Revision B.01,
 M. J. Frisch, G. W. Trucks, H. B. Schlegel, G. E. Scuseria, 
 M. A. Robb, J. R. Cheeseman, G. Scalmani, V. Barone, 
 G. A. Petersson, H. Nakatsuji, X. Li, M. Caricato, A. V. Marenich, 
 J. Bloino, B. G. Janesko, R. Gomperts, B. Mennucci, H. P. Hratchian, 
 J. V. Ortiz, A. F. Izmaylov, J. L. Sonnenberg, D. Williams-Young, 
 F. Ding, F. Lipparini, F. Egidi, J. Goings, B. Peng, A. Petrone, 
 T. Henderson, D. Ranasinghe, V. G. Zakrzewski, J. Gao, N. Rega, 
 G. Zheng, W. Liang, M. Hada, M. Ehara, K. Toyota, R. Fukuda, 
 J. Hasegawa, M. Ishida, T. Nakajima, Y. Honda, O. Kitao, H. Nakai, 
 T. Vreven, K. Throssell, J. A. Montgomery, Jr., J. E. Peralta, 
 F. Ogliaro, M. J. Bearpark, J. J. Heyd, E. N. Brothers, K. N. Kudin, 
 V. N. Staroverov, T. A. Keith, R. Kobayashi, J. Normand, 
 K. Raghavachari, A. P. Rendell, J. C. Burant, S. S. Iyengar, 
 J. Tomasi, M. Cossi, J. M. Millam, M. Klene, C. Adamo, R. Cammi, 
 J. W. Ochterski, R. L. Martin, K. Morokuma, O. Farkas, 
 J. B. Foresman, and D. J. Fox, Gaussian, Inc., Wallingford CT, 2016.
 
 ******************************************
 Gaussian 16:  ES64L-G16RevB.01 20-Dec-2017
                29-Sep-2023 
 ******************************************
 %chk=ibutane.chk
 %mem=500mw
 %nprocs=4
 Will use up to    4 processors via shared memory.
 ---------------------------------------
 # b3lyp/gen opt freq CPHF(Grid=OneStep)
 ---------------------------------------
 1/18=20,19=15,26=3,38=1/1,3;
 2/9=110,12=2,17=6,18=5,40=1/2;
 3/5=7,11=2,25=1,30=1,71=1,74=-5/1,2,3;
 4//1;
 5/5=2,38=5/2;
 6/7=2,8=2,9=2,10=2,28=1/1;
 7//1,2,3,16;
 1/18=20,19=15,26=3/3(2);
 2/9=110/2;
 99//99;
 2/9=110/2;
 3/5=7,6=1,11=2,25=1,30=1,71=1,74=-5,82=7/1,2,3;
 4/5=5,16=3,69=1/1;
 5/5=2,38=5/2;
 7//1,2,3,16;
 1/18=20,19=15,26=3/3(-5);
 2/9=110/2;
 6/7=2,8=2,9=2,10=2,19=2,28=1/1;
 99/9=1/99;
 -----------------------
 i-butane, B3LYP/pcseg-2
 -----------------------
 Symbolic Z-matrix:
 Charge =  0 Multiplicity = 1
 C                     0.        0.        0.37131 
 H                     0.        0.        1.4666 
 C                     0.        1.458    -0.09546 
 C                     1.26267  -0.729    -0.09546 
 C                    -1.26267  -0.729    -0.09546 
 H                     0.        1.51553  -1.18699 
 H                     1.31249  -0.75777  -1.18699 
 H                    -1.31249  -0.75777  -1.18699 
 H                     0.8821    1.99071   0.26414 
 H                    -0.8821    1.99071   0.26414 
 H                     1.28296  -1.75927   0.26414 
 H                     2.16505  -0.23144   0.26414 
 H                    -2.16505  -0.23144   0.26414 
 H                    -1.28296  -1.75927   0.26414 
 

 GradGradGradGradGradGradGradGradGradGradGradGradGradGradGradGradGradGrad
 Berny optimization.
 Initialization pass.
                           ----------------------------
                           !    Initial Parameters    !
                           ! (Angstroms and Degrees)  !
 --------------------------                            --------------------------
 ! Name  Definition              Value          Derivative Info.                !
 --------------------------------------------------------------------------------
 ! R1    R(1,2)                  1.0953         estimate D2E/DX2                !
 ! R2    R(1,3)                  1.5309         estimate D2E/DX2                !
 ! R3    R(1,4)                  1.5309         estimate D2E/DX2                !
 ! R4    R(1,5)                  1.5309         estimate D2E/DX2                !
 ! R5    R(3,6)                  1.093          estimate D2E/DX2                !
 ! R6    R(3,9)                  1.0914         estimate D2E/DX2                !
 ! R7    R(3,10)                 1.0914         estimate D2E/DX2                !
 ! R8    R(4,7)                  1.093          estimate D2E/DX2                !
 ! R9    R(4,11)                 1.0914         estimate D2E/DX2                !
 ! R10   R(4,12)                 1.0914         estimate D2E/DX2                !
 ! R11   R(5,8)                  1.093          estimate D2E/DX2                !
 ! R12   R(5,13)                 1.0914         estimate D2E/DX2                !
 ! R13   R(5,14)                 1.0914         estimate D2E/DX2                !
 ! A1    A(2,1,3)              107.752          estimate D2E/DX2                !
 ! A2    A(2,1,4)              107.752          estimate D2E/DX2                !
 ! A3    A(2,1,5)              107.752          estimate D2E/DX2                !
 ! A4    A(3,1,4)              111.1343         estimate D2E/DX2                !
 ! A5    A(3,1,5)              111.1343         estimate D2E/DX2                !
 ! A6    A(4,1,5)              111.1344         estimate D2E/DX2                !
 ! A7    A(1,3,6)              110.769          estimate D2E/DX2                !
 ! A8    A(1,3,9)              111.3701         estimate D2E/DX2                !
 ! A9    A(1,3,10)             111.3701         estimate D2E/DX2                !
 ! A10   A(6,3,9)              107.6583         estimate D2E/DX2                !
 ! A11   A(6,3,10)             107.6583         estimate D2E/DX2                !
 ! A12   A(9,3,10)             107.8433         estimate D2E/DX2                !
 ! A13   A(1,4,7)              110.7689         estimate D2E/DX2                !
 ! A14   A(1,4,11)             111.37           estimate D2E/DX2                !
 ! A15   A(1,4,12)             111.3701         estimate D2E/DX2                !
 ! A16   A(7,4,11)             107.6583         estimate D2E/DX2                !
 ! A17   A(7,4,12)             107.6584         estimate D2E/DX2                !
 ! A18   A(11,4,12)            107.8433         estimate D2E/DX2                !
 ! A19   A(1,5,8)              110.7689         estimate D2E/DX2                !
 ! A20   A(1,5,13)             111.3701         estimate D2E/DX2                !
 ! A21   A(1,5,14)             111.37           estimate D2E/DX2                !
 ! A22   A(8,5,13)             107.6584         estimate D2E/DX2                !
 ! A23   A(8,5,14)             107.6583         estimate D2E/DX2                !
 ! A24   A(13,5,14)            107.8433         estimate D2E/DX2                !
 ! D1    D(2,1,3,6)            180.0            estimate D2E/DX2                !
 ! D2    D(2,1,3,9)             60.2135         estimate D2E/DX2                !
 ! D3    D(2,1,3,10)           -60.2135         estimate D2E/DX2                !
 ! D4    D(4,1,3,6)             62.1615         estimate D2E/DX2                !
 ! D5    D(4,1,3,9)            -57.6249         estimate D2E/DX2                !
 ! D6    D(4,1,3,10)          -178.052          estimate D2E/DX2                !
 ! D7    D(5,1,3,6)            -62.1615         estimate D2E/DX2                !
 ! D8    D(5,1,3,9)            178.052          estimate D2E/DX2                !
 ! D9    D(5,1,3,10)            57.6249         estimate D2E/DX2                !
 ! D10   D(2,1,4,7)            180.0            estimate D2E/DX2                !
 ! D11   D(2,1,4,11)            60.2136         estimate D2E/DX2                !
 ! D12   D(2,1,4,12)           -60.2135         estimate D2E/DX2                !
 ! D13   D(3,1,4,7)            -62.1616         estimate D2E/DX2                !
 ! D14   D(3,1,4,11)           178.052          estimate D2E/DX2                !
 ! D15   D(3,1,4,12)            57.625          estimate D2E/DX2                !
 ! D16   D(5,1,4,7)             62.1615         estimate D2E/DX2                !
 ! D17   D(5,1,4,11)           -57.6249         estimate D2E/DX2                !
 ! D18   D(5,1,4,12)          -178.052          estimate D2E/DX2                !
 ! D19   D(2,1,5,8)           -180.0            estimate D2E/DX2                !
 ! D20   D(2,1,5,13)            60.2135         estimate D2E/DX2                !
 ! D21   D(2,1,5,14)           -60.2136         estimate D2E/DX2                !
 ! D22   D(3,1,5,8)             62.1616         estimate D2E/DX2                !
 ! D23   D(3,1,5,13)           -57.625          estimate D2E/DX2                !
 ! D24   D(3,1,5,14)          -178.052          estimate D2E/DX2                !
 ! D25   D(4,1,5,8)            -62.1615         estimate D2E/DX2                !
 ! D26   D(4,1,5,13)           178.052          estimate D2E/DX2                !
 ! D27   D(4,1,5,14)            57.6249         estimate D2E/DX2                !
 --------------------------------------------------------------------------------
 Trust Radius=3.00D-01 FncErr=1.00D-07 GrdErr=1.00D-06 EigMax=2.50D+02 EigMin=1.00D-04
 Number of steps in this run=     74 maximum allowed number of steps=    100.
 GradGradGradGradGradGradGradGradGradGradGradGradGradGradGradGradGradGrad

                          Input orientation:                          
 ---------------------------------------------------------------------
 Center     Atomic      Atomic             Coordinates (Angstroms)
 Number     Number       Type             X           Y           Z
 ---------------------------------------------------------------------
      1          6           0        0.000000    0.000000    0.371305
      2          1           0        0.000000    0.000000    1.466599
      3          6           0        0.000000    1.458003   -0.095462
      4          6           0        1.262668   -0.729001   -0.095462
      5          6           0       -1.262668   -0.729001   -0.095462
      6          1           0        0.000000    1.515531   -1.186988
      7          1           0        1.312488   -0.757765   -1.186988
      8          1           0       -1.312488   -0.757765   -1.186988
      9          1           0        0.882095    1.990712    0.264143
     10          1           0       -0.882095    1.990712    0.264143
     11          1           0        1.282959   -1.759272    0.264143
     12          1           0        2.165054   -0.231439    0.264143
     13          1           0       -2.165054   -0.231439    0.264143
     14          1           0       -1.282959   -1.759272    0.264143
 ---------------------------------------------------------------------
                    Distance matrix (angstroms):
                    1          2          3          4          5
     1  C    0.000000
     2  H    1.095294   0.000000
     3  C    1.530897   2.136775   0.000000
     4  C    1.530897   2.136775   2.525335   0.000000
     5  C    1.530897   2.136775   2.525335   2.525336   0.000000
     6  H    2.173732   3.055873   1.093041   2.797085   2.797085
     7  H    2.173732   3.055872   2.797084   1.093041   2.797085
     8  H    2.173732   3.055872   2.797084   2.797085   1.093041
     9  H    2.180025   2.487353   1.091415   2.769655   3.482264
    10  H    2.180025   2.487353   1.091415   3.482264   2.769655
    11  H    2.180024   2.487352   3.482263   1.091415   2.769655
    12  H    2.180024   2.487353   2.769655   1.091414   3.482264
    13  H    2.180024   2.487353   2.769655   3.482264   1.091414
    14  H    2.180024   2.487352   3.482263   2.769655   1.091415
                    6          7          8          9         10
     6  H    0.000000
     7  H    2.624976   0.000000
     8  H    2.624976   2.624976   0.000000
     9  H    1.763426   3.137697   3.804747   0.000000
    10  H    1.763426   3.804747   3.137697   1.764190   0.000000
    11  H    3.804747   1.763425   3.137697   3.771349   4.330108
    12  H    3.137697   1.763425   3.804747   2.565919   3.771349
    13  H    3.137697   3.804747   1.763425   3.771349   2.565919
    14  H    3.804747   3.137697   1.763425   4.330108   3.771349
                   11         12         13         14
    11  H    0.000000
    12  H    1.764190   0.000000
    13  H    3.771348   4.330108   0.000000
    14  H    2.565918   3.771348   1.764190   0.000000
 Stoichiometry    C4H10
 Framework group  C3V[C3(CH),3SGV(CH),X(H6)]
 Deg. of freedom     8
 Full point group                 C3V     NOp   6
 Largest Abelian subgroup         CS      NOp   2
 Largest concise Abelian subgroup CS      NOp   2
                         Standard orientation:                         
 ---------------------------------------------------------------------
 Center     Atomic      Atomic             Coordinates (Angstroms)
 Number     Number       Type             X           Y           Z
 ---------------------------------------------------------------------
      1          6           0        0.000000   -0.000000    0.371305
      2          1           0        0.000000   -0.000000    1.466599
      3          6           0        0.000000    1.458003   -0.095462
      4          6           0        1.262667   -0.729001   -0.095462
      5          6           0       -1.262667   -0.729001   -0.095462
      6          1           0        0.000000    1.515531   -1.186988
      7          1           0        1.312488   -0.757765   -1.186988
      8          1           0       -1.312488   -0.757765   -1.186988
      9          1           0        0.882095    1.990712    0.264143
     10          1           0       -0.882095    1.990712    0.264143
     11          1           0        1.282959   -1.759273    0.264143
     12          1           0        2.165054   -0.231439    0.264143
     13          1           0       -2.165054   -0.231439    0.264143
     14          1           0       -1.282959   -1.759273    0.264143
 ---------------------------------------------------------------------
 Rotational constants (GHZ):           7.7872701           7.7872701           4.5066410
 General basis read from cards:  (5D, 7F)
 There are   165 symmetry adapted cartesian basis functions of A'  symmetry.
 There are   125 symmetry adapted cartesian basis functions of A"  symmetry.
 There are   146 symmetry adapted basis functions of A'  symmetry.
 There are   114 symmetry adapted basis functions of A"  symmetry.
   260 basis functions,   384 primitive gaussians,   290 cartesian basis functions
    17 alpha electrons       17 beta electrons
       nuclear repulsion energy       134.5437026348 Hartrees.
 NAtoms=   14 NActive=   14 NUniq=    5 SFac= 4.00D+00 NAtFMM=   60 NAOKFM=F Big=F
 Integral buffers will be    131072 words long.
 Raffenetti 2 integral format.
 Two-electron integral symmetry is turned on.
 One-electron integrals computed using PRISM.
 NBasis=   260 RedAO= T EigKep=  3.85D-04  NBF=   146   114
 NBsUse=   260 1.00D-06 EigRej= -1.00D+00 NBFU=   146   114
 ExpMin= 7.42D-02 ExpMax= 7.32D+03 ExpMxC= 2.50D+02 IAcc=3 IRadAn=         5 AccDes= 0.00D+00
 Harris functional with IExCor=  402 and IRadAn=       5 diagonalized for initial guess.
 HarFok:  IExCor=  402 AccDes= 0.00D+00 IRadAn=         5 IDoV= 1 UseB2=F ITyADJ=14
 ICtDFT=  3500011 ScaDFX=  1.000000  1.000000  1.000000  1.000000
 FoFCou: FMM=F IPFlag=           0 FMFlag=      100000 FMFlg1=           0
         NFxFlg=           0 DoJE=T BraDBF=F KetDBF=T FulRan=T
         wScrn=  0.000000 ICntrl=       500 IOpCl=  0 I1Cent=   200000004 NGrid=           0
         NMat0=    1 NMatS0=      1 NMatT0=    0 NMatD0=    1 NMtDS0=    0 NMtDT0=    0
 Petite list used in FoFCou.
 Initial guess orbital symmetries:
       Occupied  (E) (E) (A1) (A1) (A1) (E) (E) (A1) (A1) (E) (E)
                 (E) (E) (A2) (E) (E) (A1)
       Virtual   (A1) (A1) (E) (E) (E) (E) (A1) (A1) (E) (E) (E)
                 (E) (A2) (E) (E) (E) (E) (A1) (A1) (E) (E) (A1)
                 (A2) (A1) (E) (E) (A1) (E) (E) (A2) (A1) (E) (E)
                 (E) (E) (A1) (A1) (E) (E) (E) (E) (E) (E) (A1)
                 (A2) (E) (E) (E) (E) (E) (E) (A1) (A2) (A1) (E)
                 (E) (A2) (E) (E) (A2) (E) (E) (E) (E) (A1) (A1)
                 (E) (E) (A1) (A1) (E) (E) (E) (E) (A1) (A1) (E)
                 (E) (E) (E) (E) (E) (A2) (A1) (E) (E) (A2) (E)
                 (E) (A2) (A1) (E) (E) (A1) (E) (E) (E) (E) (A1)
                 (E) (E) (A1) (E) (E) (A1) (A1) (A2) (E) (E) (E)
                 (E) (A1) (E) (E) (A1) (E) (E) (A2) (E) (E) (E)
                 (E) (A2) (E) (E) (A1) (A1) (E) (E) (A2) (E) (E)
                 (A1) (E) (E) (E) (E) (A2) (A1) (E) (E) (E) (E)
                 (E) (E) (A2) (A1) (A2) (A1) (E) (E) (E) (E) (A2)
                 (E) (E) (E) (E) (A1) (E) (E) (E) (E) (A1) (A1)
                 (A2) (E) (E) (E) (E) (A2) (A1) (E) (E) (E) (E)
                 (A1) (E) (E) (E) (E) (A2) (E) (E) (E) (E) (A1)
                 (A1) (A2) (A1) (E) (E) (A1) (E) (E) (E) (E) (A2)
                 (A1) (E) (E) (E) (E) (A1) (E) (E) (E) (E) (A2)
                 (E) (E) (E) (E) (A1) (A1) (A1) (A2) (E) (E) (A2)
                 (E) (E) (E) (E) (E) (E) (A1) (E) (E) (E) (E) (A2)
                 (A1) (E) (E) (A1) (A1) (E) (E) (A2) (E) (E) (A1)
 The electronic state of the initial guess is 1-A1.
 Requested convergence on RMS density matrix=1.00D-08 within 128 cycles.
 Requested convergence on MAX density matrix=1.00D-06.
 Requested convergence on             energy=1.00D-06.
 No special actions if energy rises.
 Integral accuracy reduced to 1.0D-05 until final iterations.
 Initial convergence to 1.0D-05 achieved.  Increase integral accuracy.
 SCF Done:  E(RB3LYP) =  -158.525641934     A.U. after   11 cycles
            NFock= 11  Conv=0.62D-08     -V/T= 2.0049

 **********************************************************************

            Population analysis using the SCF Density.

 **********************************************************************

 Orbital symmetries:
       Occupied  (A1) (E) (E) (A1) (A1) (E) (E) (A1) (A1) (E) (E)
                 (E) (E) (A2) (E) (E) (A1)
       Virtual   (A1) (A1) (E) (E) (A1) (E) (E) (E) (E) (A1) (A2)
                 (E) (E) (E) (E) (A1) (E) (E) (A1) (E) (E) (A2)
                 (E) (E) (A1) (A1) (A1) (E) (E) (A2) (E) (E) (A1)
                 (E) (E) (A1) (E) (E) (A1) (E) (E) (E) (E) (A1)
                 (A2) (E) (E) (E) (E) (E) (E) (A1) (A2) (E) (E)
                 (A1) (A2) (E) (E) (A2) (E) (E) (E) (E) (A1) (E)
                 (E) (A1) (A1) (A1) (E) (E) (E) (E) (A1) (A1) (E)
                 (E) (E) (E) (E) (E) (A2) (A1) (E) (E) (A2) (E)
                 (E) (A2) (A1) (E) (E) (A1) (E) (E) (E) (E) (A1)
                 (E) (E) (A1) (E) (E) (A1) (A1) (A2) (E) (E) (E)
                 (E) (A1) (E) (E) (E) (E) (A1) (A2) (E) (E) (E)
                 (E) (A2) (E) (E) (A1) (A1) (E) (E) (A2) (E) (E)
                 (A1) (E) (E) (A2) (E) (E) (A1) (E) (E) (E) (E)
                 (E) (E) (A2) (A1) (A2) (A1) (E) (E) (E) (E) (A2)
                 (E) (E) (E) (E) (A1) (E) (E) (E) (E) (A1) (A2)
                 (A1) (E) (E) (E) (E) (E) (E) (A2) (A1) (A1) (E)
                 (E) (E) (E) (E) (E) (A2) (E) (E) (E) (E) (A1)
                 (A1) (A2) (E) (E) (A1) (A1) (E) (E) (E) (E) (A2)
                 (A1) (E) (E) (E) (E) (A1) (E) (E) (E) (E) (A2)
                 (E) (E) (E) (E) (A1) (A1) (A1) (A2) (E) (E) (A2)
                 (E) (E) (E) (E) (E) (E) (A1) (E) (E) (E) (E) (A2)
                 (A1) (E) (E) (A1) (A1) (E) (E) (A2) (E) (E) (A1)
 The electronic state is 1-A1.
 Alpha  occ. eigenvalues --  -10.17268 -10.15564 -10.15564 -10.15563  -0.80296
 Alpha  occ. eigenvalues --   -0.68293  -0.68293  -0.56105  -0.46503  -0.43285
 Alpha  occ. eigenvalues --   -0.43285  -0.38541  -0.38541  -0.36509  -0.33056
 Alpha  occ. eigenvalues --   -0.33056  -0.32408
 Alpha virt. eigenvalues --    0.01245   0.04599   0.04886   0.04886   0.07642
 Alpha virt. eigenvalues --    0.07733   0.07733   0.11375   0.11375   0.12068
 Alpha virt. eigenvalues --    0.13179   0.14984   0.14984   0.18345   0.18345
 Alpha virt. eigenvalues --    0.20762   0.24034   0.24034   0.27404   0.27674
 Alpha virt. eigenvalues --    0.27674   0.31556   0.33554   0.33554   0.33594
 Alpha virt. eigenvalues --    0.33894   0.36574   0.36634   0.36634   0.37695
 Alpha virt. eigenvalues --    0.38060   0.38060   0.39979   0.42887   0.42887
 Alpha virt. eigenvalues --    0.51370   0.56845   0.56845   0.57814   0.68820
 Alpha virt. eigenvalues --    0.68820   0.76752   0.76752   0.81556   0.82728
 Alpha virt. eigenvalues --    0.87329   0.87329   0.94316   0.94316   0.95270
 Alpha virt. eigenvalues --    0.95270   0.98281   0.98567   0.99966   0.99966
 Alpha virt. eigenvalues --    1.00259   1.03746   1.07357   1.07357   1.09604
 Alpha virt. eigenvalues --    1.12222   1.12222   1.15185   1.15185   1.17005
 Alpha virt. eigenvalues --    1.21441   1.21441   1.22624   1.23480   1.29462
 Alpha virt. eigenvalues --    1.29858   1.29858   1.36628   1.36628   1.38246
 Alpha virt. eigenvalues --    1.46784   1.50834   1.50834   1.51298   1.51298
 Alpha virt. eigenvalues --    1.55635   1.55635   1.61967   1.67678   1.68000
 Alpha virt. eigenvalues --    1.68000   1.71029   1.79382   1.79382   1.81310
 Alpha virt. eigenvalues --    1.82644   1.83969   1.83969   1.91434   1.94294
 Alpha virt. eigenvalues --    1.94294   2.04401   2.04401   2.10280   2.15289
 Alpha virt. eigenvalues --    2.15289   2.28440   2.28568   2.28568   2.36310
 Alpha virt. eigenvalues --    2.41665   2.52170   2.53344   2.53344   2.60373
 Alpha virt. eigenvalues --    2.60373   2.70336   2.99941   2.99941   3.12122
 Alpha virt. eigenvalues --    3.12122   3.12132   3.16060   3.29379   3.29379
 Alpha virt. eigenvalues --    3.29477   3.29477   3.30100   3.34379   3.34379
 Alpha virt. eigenvalues --    3.37205   3.38298   3.40484   3.40484   3.48407
 Alpha virt. eigenvalues --    3.52484   3.52484   3.53128   3.71593   3.71593
 Alpha virt. eigenvalues --    3.77166   3.78596   3.78596   3.82148   3.82327
 Alpha virt. eigenvalues --    3.82327   3.85274   3.85274   3.86070   3.86070
 Alpha virt. eigenvalues --    3.87380   3.87689   3.92041   4.03554   4.03720
 Alpha virt. eigenvalues --    4.03720   4.11363   4.11363   4.16127   4.19803
 Alpha virt. eigenvalues --    4.19803   4.26578   4.26578   4.28084   4.32051
 Alpha virt. eigenvalues --    4.32051   4.37152   4.37152   4.39536   4.41887
 Alpha virt. eigenvalues --    4.42660   4.48624   4.48624   4.49428   4.49428
 Alpha virt. eigenvalues --    4.57433   4.57433   4.58302   4.58463   4.60855
 Alpha virt. eigenvalues --    4.61043   4.61043   4.63017   4.63017   4.65071
 Alpha virt. eigenvalues --    4.65071   4.69442   4.70964   4.70964   4.75942
 Alpha virt. eigenvalues --    4.75942   4.81312   4.85099   4.85306   4.87875
 Alpha virt. eigenvalues --    4.87875   4.89483   4.95569   4.96936   4.96936
 Alpha virt. eigenvalues --    5.05811   5.05811   5.08800   5.10693   5.14976
 Alpha virt. eigenvalues --    5.14976   5.22775   5.22775   5.28850   5.40944
 Alpha virt. eigenvalues --    5.40944   5.47232   5.47232   5.47586   5.50022
 Alpha virt. eigenvalues --    5.50022   5.52824   5.52824   5.56285   5.58582
 Alpha virt. eigenvalues --    5.69507   5.72263   5.77149   5.77149   5.80237
 Alpha virt. eigenvalues --    5.82918   5.82918   5.89024   5.89024   5.91351
 Alpha virt. eigenvalues --    5.91351   5.93276   5.94116   5.94116   5.96610
 Alpha virt. eigenvalues --    5.96610   6.01092   6.04971   6.10659   6.10659
 Alpha virt. eigenvalues --    6.15319   6.19548   6.23047   6.23047   6.26309
 Alpha virt. eigenvalues --    6.43338   6.43338   7.00011
          Condensed to atoms (all electrons):
               1          2          3          4          5          6
     1  C    4.815991   0.444513   0.335973   0.335973   0.335973  -0.035316
     2  H    0.444513   0.703097  -0.048799  -0.048799  -0.048799   0.011668
     3  C    0.335973  -0.048799   4.665626  -0.063227  -0.063227   0.424945
     4  C    0.335973  -0.048799  -0.063227   4.665626  -0.063227  -0.010114
     5  C    0.335973  -0.048799  -0.063227  -0.063227   4.665626  -0.010114
     6  H   -0.035316   0.011668   0.424945  -0.010114  -0.010114   0.650722
     7  H   -0.035316   0.011668  -0.010114   0.424945  -0.010114   0.005525
     8  H   -0.035316   0.011668  -0.010114  -0.010114   0.424945   0.005525
     9  H   -0.033519  -0.007904   0.422322  -0.007672   0.013113  -0.028515
    10  H   -0.033519  -0.007904   0.422322   0.013113  -0.007672  -0.028515
    11  H   -0.033519  -0.007904   0.013113   0.422322  -0.007672  -0.000138
    12  H   -0.033519  -0.007904  -0.007672   0.422322   0.013113  -0.001401
    13  H   -0.033519  -0.007904  -0.007672   0.013113   0.422322  -0.001401
    14  H   -0.033519  -0.007904   0.013113  -0.007672   0.422322  -0.000138
               7          8          9         10         11         12
     1  C   -0.035316  -0.035316  -0.033519  -0.033519  -0.033519  -0.033519
     2  H    0.011668   0.011668  -0.007904  -0.007904  -0.007904  -0.007904
     3  C   -0.010114  -0.010114   0.422322   0.422322   0.013113  -0.007672
     4  C    0.424945  -0.010114  -0.007672   0.013113   0.422322   0.422322
     5  C   -0.010114   0.424945   0.013113  -0.007672  -0.007672   0.013113
     6  H    0.005525   0.005525  -0.028515  -0.028515  -0.000138  -0.001401
     7  H    0.650722   0.005525  -0.001401  -0.000138  -0.028515  -0.028515
     8  H    0.005525   0.650722  -0.000138  -0.001401  -0.001401  -0.000138
     9  H   -0.001401  -0.000138   0.637907  -0.024163   0.000105   0.003975
    10  H   -0.000138  -0.001401  -0.024163   0.637907  -0.000569   0.000105
    11  H   -0.028515  -0.001401   0.000105  -0.000569   0.637907  -0.024163
    12  H   -0.028515  -0.000138   0.003975   0.000105  -0.024163   0.637907
    13  H   -0.000138  -0.028515   0.000105   0.003975   0.000105  -0.000569
    14  H   -0.001401  -0.028515  -0.000569   0.000105   0.003975   0.000105
              13         14
     1  C   -0.033519  -0.033519
     2  H   -0.007904  -0.007904
     3  C   -0.007672   0.013113
     4  C    0.013113  -0.007672
     5  C    0.422322   0.422322
     6  H   -0.001401  -0.000138
     7  H   -0.000138  -0.001401
     8  H   -0.028515  -0.028515
     9  H    0.000105  -0.000569
    10  H    0.003975   0.000105
    11  H    0.000105   0.003975
    12  H   -0.000569   0.000105
    13  H    0.637907  -0.024163
    14  H   -0.024163   0.637907
 Mulliken charges:
               1
     1  C    0.038641
     2  H    0.011210
     3  C   -0.086590
     4  C   -0.086590
     5  C   -0.086590
     6  H    0.017266
     7  H    0.017266
     8  H    0.017266
     9  H    0.026354
    10  H    0.026354
    11  H    0.026354
    12  H    0.026354
    13  H    0.026354
    14  H    0.026354
 Sum of Mulliken charges =  -0.00000
 Mulliken charges with hydrogens summed into heavy atoms:
               1
     1  C    0.049852
     3  C   -0.016617
     4  C   -0.016617
     5  C   -0.016617
 Electronic spatial extent (au):  <R**2>=            355.3655
 Charge=             -0.0000 electrons
 Dipole moment (field-independent basis, Debye):
    X=              0.0000    Y=             -0.0000    Z=              0.1421  Tot=              0.1421
 Quadrupole moment (field-independent basis, Debye-Ang):
   XX=            -29.2416   YY=            -29.2416   ZZ=            -28.5718
   XY=             -0.0000   XZ=              0.0000   YZ=              0.0000
 Traceless Quadrupole moment (field-independent basis, Debye-Ang):
   XX=             -0.2233   YY=             -0.2233   ZZ=              0.4465
   XY=             -0.0000   XZ=              0.0000   YZ=              0.0000
 Octapole moment (field-independent basis, Debye-Ang**2):
  XXX=              0.0000  YYY=             -1.8793  ZZZ=             -0.6137  XYY=              0.0000
  XXY=              1.8793  XXZ=              1.3779  XZZ=              0.0000  YZZ=              0.0000
  YYZ=              1.3779  XYZ=             -0.0000
 Hexadecapole moment (field-independent basis, Debye-Ang**3):
 XXXX=           -221.8440 YYYY=           -221.8440 ZZZZ=            -67.7894 XXXY=              0.0000
 XXXZ=              0.0000 YYYX=              0.0000 YYYZ=             -1.0589 ZZZX=             -0.0000
 ZZZY=             -0.0000 XXYY=            -73.9480 XXZZ=            -49.3437 YYZZ=            -49.3437
 XXYZ=              1.0589 YYXZ=             -0.0000 ZZXY=              0.0000
 N-N= 1.345437026348D+02 E-N=-6.354098369912D+02  KE= 1.577561273173D+02
 Symmetry A'   KE= 1.143680101919D+02
 Symmetry A"   KE= 4.338811712541D+01
 Calling FoFJK, ICntrl=      2127 FMM=F ISym2X=1 I1Cent= 0 IOpClX= 0 NMat=1 NMatS=1 NMatT=0.
 ***** Axes restored to original set *****
 -------------------------------------------------------------------
 Center     Atomic                   Forces (Hartrees/Bohr)
 Number     Number              X              Y              Z
 -------------------------------------------------------------------
      1        6          -0.000000000   -0.000000000    0.000041681
      2        1           0.000000000    0.000000000    0.000036232
      3        6           0.000000000    0.000033035   -0.000010112
      4        6           0.000028609   -0.000016517   -0.000010112
      5        6          -0.000028609   -0.000016517   -0.000010112
      6        1           0.000000000    0.000010812   -0.000010257
      7        1           0.000009363   -0.000005406   -0.000010257
      8        1          -0.000009363   -0.000005406   -0.000010257
      9        1          -0.000006518   -0.000013115   -0.000002801
     10        1           0.000006518   -0.000013115   -0.000002801
     11        1          -0.000008099    0.000012202   -0.000002801
     12        1          -0.000014617    0.000000912   -0.000002801
     13        1           0.000014617    0.000000912   -0.000002801
     14        1           0.000008099    0.000012202   -0.000002801
 -------------------------------------------------------------------
 Cartesian Forces:  Max     0.000041681 RMS     0.000014335

 GradGradGradGradGradGradGradGradGradGradGradGradGradGradGradGradGradGrad
 Berny optimization.
 FormGI is forming the generalized inverse of G from B-inverse, IUseBI=4.
 Internal  Forces:  Max     0.000036232 RMS     0.000010302
 Search for a local minimum.
 Step number   1 out of a maximum of   74
 All quantities printed in internal units (Hartrees-Bohrs-Radians)
 Mixed Optimization -- En-DIIS/RFO-DIIS
 Second derivative matrix not updated -- first step.
 ITU=  0
     Eigenvalues ---    0.00357   0.00357   0.00357   0.03490   0.04823
     Eigenvalues ---    0.04823   0.05447   0.05447   0.05447   0.05525
     Eigenvalues ---    0.05525   0.05525   0.16000   0.16000   0.16000
     Eigenvalues ---    0.16000   0.16000   0.16000   0.16000   0.16000
     Eigenvalues ---    0.16000   0.16873   0.16873   0.29341   0.29341
     Eigenvalues ---    0.29341   0.34208   0.34464   0.34464   0.34464
     Eigenvalues ---    0.34650   0.34650   0.34650   0.34650   0.34650
     Eigenvalues ---    0.34650
 RFO step:  Lambda=-3.22608700D-08 EMin= 3.57249024D-03
 Linear search not attempted -- first point.
 Iteration  1 RMS(Cart)=  0.00005991 RMS(Int)=  0.00000000
 Iteration  2 RMS(Cart)=  0.00000000 RMS(Int)=  0.00000000
 ClnCor:  largest displacement from symmetrization is 2.08D-11 for atom    13.
 Variable       Old X    -DE/DX   Delta X   Delta X   Delta X     New X
                                 (Linear)    (Quad)   (Total)
    R1        2.06981   0.00004   0.00000   0.00011   0.00011   2.06991
    R2        2.89297   0.00002   0.00000   0.00008   0.00008   2.89306
    R3        2.89297   0.00002   0.00000   0.00008   0.00008   2.89306
    R4        2.89297   0.00002   0.00000   0.00008   0.00008   2.89306
    R5        2.06555   0.00001   0.00000   0.00003   0.00003   2.06558
    R6        2.06248  -0.00001   0.00000  -0.00004  -0.00004   2.06244
    R7        2.06248  -0.00001   0.00000  -0.00004  -0.00004   2.06244
    R8        2.06555   0.00001   0.00000   0.00003   0.00003   2.06558
    R9        2.06248  -0.00001   0.00000  -0.00004  -0.00004   2.06244
   R10        2.06248  -0.00001   0.00000  -0.00004  -0.00004   2.06244
   R11        2.06555   0.00001   0.00000   0.00003   0.00003   2.06558
   R12        2.06248  -0.00001   0.00000  -0.00004  -0.00004   2.06244
   R13        2.06248  -0.00001   0.00000  -0.00004  -0.00004   2.06244
    A1        1.88063   0.00000   0.00000   0.00005   0.00005   1.88068
    A2        1.88063   0.00000   0.00000   0.00005   0.00005   1.88068
    A3        1.88063   0.00000   0.00000   0.00005   0.00005   1.88068
    A4        1.93966  -0.00000   0.00000  -0.00005  -0.00005   1.93961
    A5        1.93966  -0.00000   0.00000  -0.00005  -0.00005   1.93961
    A6        1.93966  -0.00000   0.00000  -0.00005  -0.00005   1.93961
    A7        1.93328   0.00002   0.00000   0.00013   0.00013   1.93341
    A8        1.94377  -0.00001   0.00000  -0.00008  -0.00008   1.94370
    A9        1.94377  -0.00001   0.00000  -0.00008  -0.00008   1.94370
   A10        1.87899  -0.00000   0.00000  -0.00000  -0.00000   1.87899
   A11        1.87899  -0.00000   0.00000  -0.00000  -0.00000   1.87899
   A12        1.88222   0.00001   0.00000   0.00004   0.00004   1.88226
   A13        1.93328   0.00002   0.00000   0.00013   0.00013   1.93341
   A14        1.94377  -0.00001   0.00000  -0.00008  -0.00008   1.94370
   A15        1.94377  -0.00001   0.00000  -0.00008  -0.00008   1.94370
   A16        1.87899  -0.00000   0.00000  -0.00000  -0.00000   1.87899
   A17        1.87899  -0.00000   0.00000  -0.00000  -0.00000   1.87899
   A18        1.88222   0.00001   0.00000   0.00004   0.00004   1.88226
   A19        1.93328   0.00002   0.00000   0.00013   0.00013   1.93341
   A20        1.94377  -0.00001   0.00000  -0.00008  -0.00008   1.94370
   A21        1.94377  -0.00001   0.00000  -0.00008  -0.00008   1.94370
   A22        1.87899  -0.00000   0.00000  -0.00000  -0.00000   1.87899
   A23        1.87899  -0.00000   0.00000  -0.00000  -0.00000   1.87899
   A24        1.88222   0.00001   0.00000   0.00004   0.00004   1.88226
    D1        3.14159  -0.00000   0.00000  -0.00000   0.00000   3.14159
    D2        1.05092  -0.00000   0.00000  -0.00003  -0.00003   1.05089
    D3       -1.05092   0.00000   0.00000   0.00003   0.00003  -1.05089
    D4        1.08492  -0.00000   0.00000  -0.00007  -0.00007   1.08485
    D5       -1.00575  -0.00000   0.00000  -0.00010  -0.00010  -1.00585
    D6       -3.10759  -0.00000   0.00000  -0.00004  -0.00004  -3.10763
    D7       -1.08492   0.00000   0.00000   0.00007   0.00007  -1.08485
    D8        3.10759   0.00000   0.00000   0.00004   0.00004   3.10763
    D9        1.00575   0.00000   0.00000   0.00010   0.00010   1.00585
   D10        3.14159  -0.00000   0.00000   0.00000   0.00000   3.14159
   D11        1.05092  -0.00000   0.00000  -0.00003  -0.00003   1.05089
   D12       -1.05092   0.00000   0.00000   0.00003   0.00003  -1.05089
   D13       -1.08492   0.00000   0.00000   0.00007   0.00007  -1.08485
   D14        3.10759   0.00000   0.00000   0.00004   0.00004   3.10763
   D15        1.00575   0.00000   0.00000   0.00010   0.00010   1.00585
   D16        1.08492  -0.00000   0.00000  -0.00007  -0.00007   1.08485
   D17       -1.00575  -0.00000   0.00000  -0.00010  -0.00010  -1.00585
   D18       -3.10759  -0.00000   0.00000  -0.00004  -0.00004  -3.10763
   D19        3.14159   0.00000   0.00000   0.00000  -0.00000   3.14159
   D20        1.05092  -0.00000   0.00000  -0.00003  -0.00003   1.05089
   D21       -1.05092   0.00000   0.00000   0.00003   0.00003  -1.05089
   D22        1.08492  -0.00000   0.00000  -0.00007  -0.00007   1.08485
   D23       -1.00575  -0.00000   0.00000  -0.00010  -0.00010  -1.00585
   D24       -3.10759  -0.00000   0.00000  -0.00004  -0.00004  -3.10763
   D25       -1.08492   0.00000   0.00000   0.00007   0.00007  -1.08485
   D26        3.10759   0.00000   0.00000   0.00004   0.00004   3.10763
   D27        1.00575   0.00000   0.00000   0.00010   0.00010   1.00585
         Item               Value     Threshold  Converged?
 Maximum Force            0.000036     0.000450     YES
 RMS     Force            0.000010     0.000300     YES
 Maximum Displacement     0.000231     0.001800     YES
 RMS     Displacement     0.000060     0.001200     YES
 Predicted change in Energy=-1.613002D-08
 Optimization completed.
    -- Stationary point found.
                           ----------------------------
                           !   Optimized Parameters   !
                           ! (Angstroms and Degrees)  !
 --------------------------                            --------------------------
 ! Name  Definition              Value          Derivative Info.                !
 --------------------------------------------------------------------------------
 ! R1    R(1,2)                  1.0953         -DE/DX =    0.0                 !
 ! R2    R(1,3)                  1.5309         -DE/DX =    0.0                 !
 ! R3    R(1,4)                  1.5309         -DE/DX =    0.0                 !
 ! R4    R(1,5)                  1.5309         -DE/DX =    0.0                 !
 ! R5    R(3,6)                  1.093          -DE/DX =    0.0                 !
 ! R6    R(3,9)                  1.0914         -DE/DX =    0.0                 !
 ! R7    R(3,10)                 1.0914         -DE/DX =    0.0                 !
 ! R8    R(4,7)                  1.093          -DE/DX =    0.0                 !
 ! R9    R(4,11)                 1.0914         -DE/DX =    0.0                 !
 ! R10   R(4,12)                 1.0914         -DE/DX =    0.0                 !
 ! R11   R(5,8)                  1.093          -DE/DX =    0.0                 !
 ! R12   R(5,13)                 1.0914         -DE/DX =    0.0                 !
 ! R13   R(5,14)                 1.0914         -DE/DX =    0.0                 !
 ! A1    A(2,1,3)              107.752          -DE/DX =    0.0                 !
 ! A2    A(2,1,4)              107.752          -DE/DX =    0.0                 !
 ! A3    A(2,1,5)              107.752          -DE/DX =    0.0                 !
 ! A4    A(3,1,4)              111.1343         -DE/DX =    0.0                 !
 ! A5    A(3,1,5)              111.1343         -DE/DX =    0.0                 !
 ! A6    A(4,1,5)              111.1343         -DE/DX =    0.0                 !
 ! A7    A(1,3,6)              110.769          -DE/DX =    0.0                 !
 ! A8    A(1,3,9)              111.3701         -DE/DX =    0.0                 !
 ! A9    A(1,3,10)             111.3701         -DE/DX =    0.0                 !
 ! A10   A(6,3,9)              107.6583         -DE/DX =    0.0                 !
 ! A11   A(6,3,10)             107.6583         -DE/DX =    0.0                 !
 ! A12   A(9,3,10)             107.8433         -DE/DX =    0.0                 !
 ! A13   A(1,4,7)              110.769          -DE/DX =    0.0                 !
 ! A14   A(1,4,11)             111.3701         -DE/DX =    0.0                 !
 ! A15   A(1,4,12)             111.3701         -DE/DX =    0.0                 !
 ! A16   A(7,4,11)             107.6583         -DE/DX =    0.0                 !
 ! A17   A(7,4,12)             107.6583         -DE/DX =    0.0                 !
 ! A18   A(11,4,12)            107.8433         -DE/DX =    0.0                 !
 ! A19   A(1,5,8)              110.769          -DE/DX =    0.0                 !
 ! A20   A(1,5,13)             111.3701         -DE/DX =    0.0                 !
 ! A21   A(1,5,14)             111.3701         -DE/DX =    0.0                 !
 ! A22   A(8,5,13)             107.6583         -DE/DX =    0.0                 !
 ! A23   A(8,5,14)             107.6583         -DE/DX =    0.0                 !
 ! A24   A(13,5,14)            107.8433         -DE/DX =    0.0                 !
 ! D1    D(2,1,3,6)            180.0            -DE/DX =    0.0                 !
 ! D2    D(2,1,3,9)             60.2135         -DE/DX =    0.0                 !
 ! D3    D(2,1,3,10)           -60.2135         -DE/DX =    0.0                 !
 ! D4    D(4,1,3,6)             62.1615         -DE/DX =    0.0                 !
 ! D5    D(4,1,3,9)            -57.625          -DE/DX =    0.0                 !
 ! D6    D(4,1,3,10)          -178.052          -DE/DX =    0.0                 !
 ! D7    D(5,1,3,6)            -62.1615         -DE/DX =    0.0                 !
 ! D8    D(5,1,3,9)            178.052          -DE/DX =    0.0                 !
 ! D9    D(5,1,3,10)            57.625          -DE/DX =    0.0                 !
 ! D10   D(2,1,4,7)            180.0            -DE/DX =    0.0                 !
 ! D11   D(2,1,4,11)            60.2135         -DE/DX =    0.0                 !
 ! D12   D(2,1,4,12)           -60.2135         -DE/DX =    0.0                 !
 ! D13   D(3,1,4,7)            -62.1615         -DE/DX =    0.0                 !
 ! D14   D(3,1,4,11)           178.052          -DE/DX =    0.0                 !
 ! D15   D(3,1,4,12)            57.625          -DE/DX =    0.0                 !
 ! D16   D(5,1,4,7)             62.1615         -DE/DX =    0.0                 !
 ! D17   D(5,1,4,11)           -57.625          -DE/DX =    0.0                 !
 ! D18   D(5,1,4,12)          -178.052          -DE/DX =    0.0                 !
 ! D19   D(2,1,5,8)            180.0            -DE/DX =    0.0                 !
 ! D20   D(2,1,5,13)            60.2135         -DE/DX =    0.0                 !
 ! D21   D(2,1,5,14)           -60.2135         -DE/DX =    0.0                 !
 ! D22   D(3,1,5,8)             62.1615         -DE/DX =    0.0                 !
 ! D23   D(3,1,5,13)           -57.625          -DE/DX =    0.0                 !
 ! D24   D(3,1,5,14)          -178.052          -DE/DX =    0.0                 !
 ! D25   D(4,1,5,8)            -62.1615         -DE/DX =    0.0                 !
 ! D26   D(4,1,5,13)           178.052          -DE/DX =    0.0                 !
 ! D27   D(4,1,5,14)            57.625          -DE/DX =    0.0                 !
 --------------------------------------------------------------------------------
 GradGradGradGradGradGradGradGradGradGradGradGradGradGradGradGradGradGrad

                          Input orientation:                          
 ---------------------------------------------------------------------
 Center     Atomic      Atomic             Coordinates (Angstroms)
 Number     Number       Type             X           Y           Z
 ---------------------------------------------------------------------
      1          6           0        0.000000    0.000000    0.371305
      2          1           0        0.000000    0.000000    1.466599
      3          6           0        0.000000    1.458003   -0.095462
      4          6           0        1.262667   -0.729001   -0.095462
      5          6           0       -1.262667   -0.729001   -0.095462
      6          1           0        0.000000    1.515531   -1.186988
      7          1           0        1.312488   -0.757765   -1.186988
      8          1           0       -1.312488   -0.757765   -1.186988
      9          1           0        0.882095    1.990712    0.264143
     10          1           0       -0.882095    1.990712    0.264143
     11          1           0        1.282959   -1.759272    0.264143
     12          1           0        2.165054   -0.231439    0.264143
     13          1           0       -2.165054   -0.231439    0.264143
     14          1           0       -1.282959   -1.759272    0.264143
 ---------------------------------------------------------------------
                    Distance matrix (angstroms):
                    1          2          3          4          5
     1  C    0.000000
     2  H    1.095294   0.000000
     3  C    1.530896   2.136775   0.000000
     4  C    1.530896   2.136775   2.525335   0.000000
     5  C    1.530896   2.136775   2.525335   2.525335   0.000000
     6  H    2.173732   3.055873   1.093041   2.797085   2.797085
     7  H    2.173732   3.055873   2.797085   1.093041   2.797085
     8  H    2.173732   3.055873   2.797085   2.797085   1.093041
     9  H    2.180025   2.487353   1.091415   2.769655   3.482264
    10  H    2.180025   2.487353   1.091415   3.482264   2.769655
    11  H    2.180025   2.487353   3.482264   1.091415   2.769655
    12  H    2.180025   2.487353   2.769655   1.091415   3.482264
    13  H    2.180025   2.487353   2.769655   3.482264   1.091415
    14  H    2.180025   2.487353   3.482264   2.769655   1.091415
                    6          7          8          9         10
     6  H    0.000000
     7  H    2.624976   0.000000
     8  H    2.624976   2.624976   0.000000
     9  H    1.763426   3.137698   3.804747   0.000000
    10  H    1.763426   3.804747   3.137698   1.764190   0.000000
    11  H    3.804747   1.763426   3.137698   3.771349   4.330109
    12  H    3.137698   1.763426   3.804747   2.565919   3.771349
    13  H    3.137698   3.804747   1.763426   3.771349   2.565919
    14  H    3.804747   3.137698   1.763426   4.330109   3.771349
                   11         12         13         14
    11  H    0.000000
    12  H    1.764190   0.000000
    13  H    3.771349   4.330109   0.000000
    14  H    2.565919   3.771349   1.764190   0.000000
 Stoichiometry    C4H10
 Framework group  C3V[C3(CH),3SGV(CH),X(H6)]
 Deg. of freedom     8
 Full point group                 C3V     NOp   6
 Largest Abelian subgroup         CS      NOp   2
 Largest concise Abelian subgroup CS      NOp   2
                         Standard orientation:                         
 ---------------------------------------------------------------------
 Center     Atomic      Atomic             Coordinates (Angstroms)
 Number     Number       Type             X           Y           Z
 ---------------------------------------------------------------------
      1          6           0        0.000000    0.000000    0.371305
      2          1           0        0.000000    0.000000    1.466599
      3          6           0        0.000000    1.458003   -0.095462
      4          6           0        1.262667   -0.729001   -0.095462
      5          6           0       -1.262667   -0.729001   -0.095462
      6          1           0        0.000000    1.515531   -1.186988
      7          1           0        1.312488   -0.757765   -1.186988
      8          1           0       -1.312488   -0.757765   -1.186988
      9          1           0        0.882095    1.990712    0.264143
     10          1           0       -0.882095    1.990712    0.264143
     11          1           0        1.282959   -1.759273    0.264143
     12          1           0        2.165054   -0.231439    0.264143
     13          1           0       -2.165054   -0.231439    0.264143
     14          1           0       -1.282959   -1.759273    0.264143
 ---------------------------------------------------------------------
 Rotational constants (GHZ):           7.7872701           7.7872701           4.5066410
 1\1\GINC-GAMBA\FOpt\RB3LYP\Gen\C4H10\IRIKURA\29-Sep-2023\0\\# b3lyp/ge
 n opt freq CPHF(Grid=OneStep)\\i-butane, B3LYP/pcseg-2\\0,1\C,0.,0.000
 0002647,0.371305\H,0.,0.0000002647,1.466599\C,0.,1.458003,-0.095462\C,
 1.2626674076,-0.7290011029,-0.095462\C,-1.2626674076,-0.7290011029,-0.
 095462\H,0.,1.515531,-1.186988\H,1.312488117,-0.7577651029,-1.186988\H
 ,-1.312488117,-0.7577651029,-1.186988\H,0.882095,1.990712,0.264143\H,-
 0.882095,1.990712,0.264143\H,1.2829594344,-1.7592722815,0.264143\H,2.1
 650544344,-0.2314389244,0.264143\H,-2.1650544344,-0.2314389244,0.26414
 3\H,-1.2829594344,-1.7592722815,0.264143\\Version=ES64L-G16RevB.01\Sta
 te=1-A1\HF=-158.5256419\RMSD=6.246e-09\RMSF=1.434e-05\Dipole=0.,0.,0.0
 559237\Quadrupole=-0.165992,-0.165992,0.331984,0.,0.,0.\PG=C03V [C3(C1
 H1),3SGV(C1H1),X(H6)]\\@



 WE LOSE BECAUSE WE WIN

 GAMBLERS,

 RECOLLECTING WHICH,

 TOSS THEIR DICE AGAIN....


                          EMILY DICKINSON  BOLTS OF MELODY NO. 533
 Job cpu time:       0 days  0 hours  1 minutes 26.7 seconds.
 Elapsed time:       0 days  0 hours  0 minutes 21.7 seconds.
 File lengths (MBytes):  RWF=     43 Int=      0 D2E=      0 Chk=      6 Scr=      1
 Normal termination of Gaussian 16 at Fri Sep 29 13:07:37 2023.
 Link1:  Proceeding to internal job step number  2.
 ------------------------------------------------------------------
 #N Geom=AllCheck Guess=TCheck SCRF=Check GenChk RB3LYP/ChkBas Freq
 ------------------------------------------------------------------
 1/10=4,29=7,30=1,38=1,40=1/1,3;
 2/12=2,40=1/2;
 3/5=7,6=2,11=2,14=-4,25=1,30=1,67=1,70=2,71=2,74=-5,82=7,116=1,140=1/1,2,3;
 4/5=101/1;
 5/5=2,38=6,98=1/2;
 8/6=4,10=90,11=11/1;
 11/6=1,8=1,9=11,15=111,16=1/1,2,10;
 10/6=1,60=-420/2;
 6/7=2,8=2,9=2,10=2,28=1/1;
 7/8=1,10=1,25=1/1,2,3,16;
 1/10=4,30=1/3;
 99//99;
 Structure from the checkpoint file:  "ibutane.chk"
 -----------------------
 i-butane, B3LYP/pcseg-2
 -----------------------
 Charge =  0 Multiplicity = 1
 Redundant internal coordinates found in file.  (old form).
 C,0,0.,0.0000002647,0.371305
 H,0,0.,0.0000002647,1.466599
 C,0,0.,1.458003,-0.095462
 C,0,1.2626674076,-0.7290011029,-0.095462
 C,0,-1.2626674076,-0.7290011029,-0.095462
 H,0,0.,1.515531,-1.186988
 H,0,1.312488117,-0.7577651029,-1.186988
 H,0,-1.312488117,-0.7577651029,-1.186988
 H,0,0.882095,1.990712,0.264143
 H,0,-0.882095,1.990712,0.264143
 H,0,1.2829594344,-1.7592722815,0.264143
 H,0,2.1650544344,-0.2314389244,0.264143
 H,0,-2.1650544344,-0.2314389244,0.264143
 H,0,-1.2829594344,-1.7592722815,0.264143
 Recover connectivity data from disk.

 GradGradGradGradGradGradGradGradGradGradGradGradGradGradGradGradGradGrad
 Berny optimization.
 Initialization pass.
                           ----------------------------
                           !    Initial Parameters    !
                           ! (Angstroms and Degrees)  !
 --------------------------                            --------------------------
 ! Name  Definition              Value          Derivative Info.                !
 --------------------------------------------------------------------------------
 ! R1    R(1,2)                  1.0953         calculate D2E/DX2 analytically  !
 ! R2    R(1,3)                  1.5309         calculate D2E/DX2 analytically  !
 ! R3    R(1,4)                  1.5309         calculate D2E/DX2 analytically  !
 ! R4    R(1,5)                  1.5309         calculate D2E/DX2 analytically  !
 ! R5    R(3,6)                  1.093          calculate D2E/DX2 analytically  !
 ! R6    R(3,9)                  1.0914         calculate D2E/DX2 analytically  !
 ! R7    R(3,10)                 1.0914         calculate D2E/DX2 analytically  !
 ! R8    R(4,7)                  1.093          calculate D2E/DX2 analytically  !
 ! R9    R(4,11)                 1.0914         calculate D2E/DX2 analytically  !
 ! R10   R(4,12)                 1.0914         calculate D2E/DX2 analytically  !
 ! R11   R(5,8)                  1.093          calculate D2E/DX2 analytically  !
 ! R12   R(5,13)                 1.0914         calculate D2E/DX2 analytically  !
 ! R13   R(5,14)                 1.0914         calculate D2E/DX2 analytically  !
 ! A1    A(2,1,3)              107.752          calculate D2E/DX2 analytically  !
 ! A2    A(2,1,4)              107.752          calculate D2E/DX2 analytically  !
 ! A3    A(2,1,5)              107.752          calculate D2E/DX2 analytically  !
 ! A4    A(3,1,4)              111.1343         calculate D2E/DX2 analytically  !
 ! A5    A(3,1,5)              111.1343         calculate D2E/DX2 analytically  !
 ! A6    A(4,1,5)              111.1343         calculate D2E/DX2 analytically  !
 ! A7    A(1,3,6)              110.769          calculate D2E/DX2 analytically  !
 ! A8    A(1,3,9)              111.3701         calculate D2E/DX2 analytically  !
 ! A9    A(1,3,10)             111.3701         calculate D2E/DX2 analytically  !
 ! A10   A(6,3,9)              107.6583         calculate D2E/DX2 analytically  !
 ! A11   A(6,3,10)             107.6583         calculate D2E/DX2 analytically  !
 ! A12   A(9,3,10)             107.8433         calculate D2E/DX2 analytically  !
 ! A13   A(1,4,7)              110.769          calculate D2E/DX2 analytically  !
 ! A14   A(1,4,11)             111.3701         calculate D2E/DX2 analytically  !
 ! A15   A(1,4,12)             111.3701         calculate D2E/DX2 analytically  !
 ! A16   A(7,4,11)             107.6583         calculate D2E/DX2 analytically  !
 ! A17   A(7,4,12)             107.6583         calculate D2E/DX2 analytically  !
 ! A18   A(11,4,12)            107.8433         calculate D2E/DX2 analytically  !
 ! A19   A(1,5,8)              110.769          calculate D2E/DX2 analytically  !
 ! A20   A(1,5,13)             111.3701         calculate D2E/DX2 analytically  !
 ! A21   A(1,5,14)             111.3701         calculate D2E/DX2 analytically  !
 ! A22   A(8,5,13)             107.6583         calculate D2E/DX2 analytically  !
 ! A23   A(8,5,14)             107.6583         calculate D2E/DX2 analytically  !
 ! A24   A(13,5,14)            107.8433         calculate D2E/DX2 analytically  !
 ! D1    D(2,1,3,6)            180.0            calculate D2E/DX2 analytically  !
 ! D2    D(2,1,3,9)             60.2135         calculate D2E/DX2 analytically  !
 ! D3    D(2,1,3,10)           -60.2135         calculate D2E/DX2 analytically  !
 ! D4    D(4,1,3,6)             62.1615         calculate D2E/DX2 analytically  !
 ! D5    D(4,1,3,9)            -57.625          calculate D2E/DX2 analytically  !
 ! D6    D(4,1,3,10)          -178.052          calculate D2E/DX2 analytically  !
 ! D7    D(5,1,3,6)            -62.1615         calculate D2E/DX2 analytically  !
 ! D8    D(5,1,3,9)            178.052          calculate D2E/DX2 analytically  !
 ! D9    D(5,1,3,10)            57.625          calculate D2E/DX2 analytically  !
 ! D10   D(2,1,4,7)            180.0            calculate D2E/DX2 analytically  !
 ! D11   D(2,1,4,11)            60.2135         calculate D2E/DX2 analytically  !
 ! D12   D(2,1,4,12)           -60.2135         calculate D2E/DX2 analytically  !
 ! D13   D(3,1,4,7)            -62.1615         calculate D2E/DX2 analytically  !
 ! D14   D(3,1,4,11)           178.052          calculate D2E/DX2 analytically  !
 ! D15   D(3,1,4,12)            57.625          calculate D2E/DX2 analytically  !
 ! D16   D(5,1,4,7)             62.1615         calculate D2E/DX2 analytically  !
 ! D17   D(5,1,4,11)           -57.625          calculate D2E/DX2 analytically  !
 ! D18   D(5,1,4,12)          -178.052          calculate D2E/DX2 analytically  !
 ! D19   D(2,1,5,8)            180.0            calculate D2E/DX2 analytically  !
 ! D20   D(2,1,5,13)            60.2135         calculate D2E/DX2 analytically  !
 ! D21   D(2,1,5,14)           -60.2135         calculate D2E/DX2 analytically  !
 ! D22   D(3,1,5,8)             62.1615         calculate D2E/DX2 analytically  !
 ! D23   D(3,1,5,13)           -57.625          calculate D2E/DX2 analytically  !
 ! D24   D(3,1,5,14)          -178.052          calculate D2E/DX2 analytically  !
 ! D25   D(4,1,5,8)            -62.1615         calculate D2E/DX2 analytically  !
 ! D26   D(4,1,5,13)           178.052          calculate D2E/DX2 analytically  !
 ! D27   D(4,1,5,14)            57.625          calculate D2E/DX2 analytically  !
 --------------------------------------------------------------------------------
 Trust Radius=3.00D-01 FncErr=1.00D-07 GrdErr=1.00D-07 EigMax=2.50D+02 EigMin=1.00D-04
 Number of steps in this run=      2 maximum allowed number of steps=      2.
 GradGradGradGradGradGradGradGradGradGradGradGradGradGradGradGradGradGrad

                          Input orientation:                          
 ---------------------------------------------------------------------
 Center     Atomic      Atomic             Coordinates (Angstroms)
 Number     Number       Type             X           Y           Z
 ---------------------------------------------------------------------
      1          6           0       -0.000000    0.000000    0.371305
      2          1           0       -0.000000    0.000000    1.466599
      3          6           0       -0.000000    1.458003   -0.095462
      4          6           0        1.262667   -0.729001   -0.095462
      5          6           0       -1.262667   -0.729001   -0.095462
      6          1           0       -0.000000    1.515531   -1.186988
      7          1           0        1.312488   -0.757765   -1.186988
      8          1           0       -1.312488   -0.757765   -1.186988
      9          1           0        0.882095    1.990712    0.264143
     10          1           0       -0.882095    1.990712    0.264143
     11          1           0        1.282959   -1.759272    0.264143
     12          1           0        2.165054   -0.231439    0.264143
     13          1           0       -2.165054   -0.231439    0.264143
     14          1           0       -1.282959   -1.759272    0.264143
 ---------------------------------------------------------------------
                    Distance matrix (angstroms):
                    1          2          3          4          5
     1  C    0.000000
     2  H    1.095294   0.000000
     3  C    1.530896   2.136775   0.000000
     4  C    1.530896   2.136775   2.525335   0.000000
     5  C    1.530896   2.136775   2.525335   2.525335   0.000000
     6  H    2.173732   3.055873   1.093041   2.797085   2.797085
     7  H    2.173732   3.055873   2.797085   1.093041   2.797085
     8  H    2.173732   3.055873   2.797085   2.797085   1.093041
     9  H    2.180025   2.487353   1.091415   2.769655   3.482264
    10  H    2.180025   2.487353   1.091415   3.482264   2.769655
    11  H    2.180025   2.487353   3.482264   1.091415   2.769655
    12  H    2.180025   2.487353   2.769655   1.091415   3.482264
    13  H    2.180025   2.487353   2.769655   3.482264   1.091415
    14  H    2.180025   2.487353   3.482264   2.769655   1.091415
                    6          7          8          9         10
     6  H    0.000000
     7  H    2.624976   0.000000
     8  H    2.624976   2.624976   0.000000
     9  H    1.763426   3.137698   3.804747   0.000000
    10  H    1.763426   3.804747   3.137698   1.764190   0.000000
    11  H    3.804747   1.763426   3.137698   3.771349   4.330109
    12  H    3.137698   1.763426   3.804747   2.565919   3.771349
    13  H    3.137698   3.804747   1.763426   3.771349   2.565919
    14  H    3.804747   3.137698   1.763426   4.330109   3.771349
                   11         12         13         14
    11  H    0.000000
    12  H    1.764190   0.000000
    13  H    3.771349   4.330109   0.000000
    14  H    2.565919   3.771349   1.764190   0.000000
 Stoichiometry    C4H10
 Framework group  C3V[C3(CH),3SGV(CH),X(H6)]
 Deg. of freedom     8
 Full point group                 C3V     NOp   6
 Largest Abelian subgroup         CS      NOp   2
 Largest concise Abelian subgroup CS      NOp   2
                         Standard orientation:                         
 ---------------------------------------------------------------------
 Center     Atomic      Atomic             Coordinates (Angstroms)
 Number     Number       Type             X           Y           Z
 ---------------------------------------------------------------------
      1          6           0        0.000000    0.000000    0.371305
      2          1           0        0.000000    0.000000    1.466599
      3          6           0        0.000000    1.458003   -0.095462
      4          6           0        1.262667   -0.729001   -0.095462
      5          6           0       -1.262667   -0.729001   -0.095462
      6          1           0        0.000000    1.515531   -1.186988
      7          1           0        1.312488   -0.757765   -1.186988
      8          1           0       -1.312488   -0.757765   -1.186988
      9          1           0        0.882095    1.990712    0.264143
     10          1           0       -0.882095    1.990712    0.264143
     11          1           0        1.282959   -1.759273    0.264143
     12          1           0        2.165054   -0.231439    0.264143
     13          1           0       -2.165054   -0.231439    0.264143
     14          1           0       -1.282959   -1.759273    0.264143
 ---------------------------------------------------------------------
 Rotational constants (GHZ):           7.7872701           7.7872701           4.5066410
 Basis read from chk: "ibutane.chk" (5D, 7F)
 There are   165 symmetry adapted cartesian basis functions of A'  symmetry.
 There are   125 symmetry adapted cartesian basis functions of A"  symmetry.
 There are   146 symmetry adapted basis functions of A'  symmetry.
 There are   114 symmetry adapted basis functions of A"  symmetry.
   260 basis functions,   384 primitive gaussians,   290 cartesian basis functions
    17 alpha electrons       17 beta electrons
       nuclear repulsion energy       134.5437026348 Hartrees.
 NAtoms=   14 NActive=   14 NUniq=    5 SFac= 4.00D+00 NAtFMM=   60 NAOKFM=F Big=F
 Integral buffers will be    131072 words long.
 Raffenetti 2 integral format.
[...]
 Alpha virt. eigenvalues --    2.29397   2.29661   2.29661   2.29862   2.33206
 Alpha virt. eigenvalues --    2.34397   2.34397   2.35775   2.36891   2.36891
 Alpha virt. eigenvalues --    2.37762   2.37762   2.45085   2.45085   2.46563
 Alpha virt. eigenvalues --    2.47894   2.50679   2.56562   2.56562   2.57788
 Alpha virt. eigenvalues --    2.57788   2.61208   2.61208   2.63445   2.63445
 Alpha virt. eigenvalues --    2.64530   2.67049   2.67663   2.72190   2.74792
 Alpha virt. eigenvalues --    2.74792   2.79851   2.81498   2.81498   2.82083
 Alpha virt. eigenvalues --    2.82083   2.86137   2.86137   2.86879   2.88331
 Alpha virt. eigenvalues --    2.92746   2.94918   2.94918   3.02911   3.03429
 Alpha virt. eigenvalues --    3.03429   3.08848   3.08848   3.10584   3.11136
 Alpha virt. eigenvalues --    3.11136   3.16551   3.17976   3.17976   3.23248
 Alpha virt. eigenvalues --    3.23248   3.23588   3.27426   3.27426   3.31510
 Alpha virt. eigenvalues --    3.32711   3.32711   3.34194   3.35819   3.38411
 Alpha virt. eigenvalues --    3.43371   3.43371   3.48945   3.48945   3.56399
 Alpha virt. eigenvalues --    3.56399   3.57219   3.57219   3.58342   3.64270
 Alpha virt. eigenvalues --    3.64270   3.64273   3.69163   3.72882   3.72882
 Alpha virt. eigenvalues --    3.78167   3.84305   3.84305   3.86636   3.95440
 Alpha virt. eigenvalues --    3.96535   3.96535   4.00910   4.12567   4.12567
 Alpha virt. eigenvalues --    4.26332   4.26332   4.28626   4.29788   4.80496
 Alpha virt. eigenvalues --    4.86550   4.86550   4.90161   4.93195   4.93195
 Alpha virt. eigenvalues --    5.01463   5.01463   5.02967   5.05031   5.05916
 Alpha virt. eigenvalues --    5.05916   5.23006   5.25146   5.25146   5.32751
 Alpha virt. eigenvalues --    5.32751   5.37732   5.38319   5.55355   5.55355
 Alpha virt. eigenvalues --    5.57245   5.71141   5.71141   5.75394   5.75394
 Alpha virt. eigenvalues --    5.81729   5.89284   5.97241   6.01434   6.01434
 Alpha virt. eigenvalues --    6.06803   6.09309   6.09309   6.10802   6.11804
 Alpha virt. eigenvalues --    6.11804   6.17819   6.21299   6.21299   6.26395
 Alpha virt. eigenvalues --    6.26395   6.28002   6.34280   6.36510   6.37259
 Alpha virt. eigenvalues --    6.37259   6.37464   6.39376   6.39376   6.41742
 Alpha virt. eigenvalues --    6.41742   6.57420   6.57420   6.67670   6.67670
 Alpha virt. eigenvalues --    6.72379   6.85383   6.85383   6.92986   7.06670
 Alpha virt. eigenvalues --    7.18858   7.18858   7.20803   7.22740   7.22740
 Alpha virt. eigenvalues --    7.31660   7.31660   7.34348   7.38275   8.32917
 Alpha virt. eigenvalues --    8.32917   8.38274   8.49600   8.49600   8.53526
 Alpha virt. eigenvalues --    8.61348   8.61348   8.71554   8.71554   8.75293
 Alpha virt. eigenvalues --    8.91933   8.91933   8.97335   9.04358   9.04358
 Alpha virt. eigenvalues --    9.30265   9.41092   9.57112   9.57628   9.57628
 Alpha virt. eigenvalues --    9.62052   9.62052   9.65902   9.65902   9.66413
 Alpha virt. eigenvalues --    9.78240   9.90036   9.90036  10.13912  21.42463
 Alpha virt. eigenvalues --   21.54747  21.54747  21.61880  21.64756  21.64756
 Alpha virt. eigenvalues --   21.65956  21.65956  21.68114  21.79647  22.08565
 Alpha virt. eigenvalues --   22.08565  23.14992  23.31307  23.31307  24.19605
          Condensed to atoms (all electrons):
               1          2          3          4          5          6
     1  C    4.781682   0.482506   0.314304   0.314304   0.314304  -0.020309
     2  H    0.482506   0.554383  -0.033573  -0.033573  -0.033573   0.007219
     3  C    0.314304  -0.033573   4.987846  -0.089427  -0.089427   0.405550
     4  C    0.314304  -0.033573  -0.089427   4.987846  -0.089427  -0.011812
     5  C    0.314304  -0.033573  -0.089427  -0.089427   4.987846  -0.011812
     6  H   -0.020309   0.007219   0.405550  -0.011812  -0.011812   0.599744
     7  H   -0.020309   0.007219  -0.011812   0.405550  -0.011812   0.004678
     8  H   -0.020309   0.007219  -0.011812  -0.011812   0.405550   0.004678
     9  H   -0.028457  -0.006925   0.411972  -0.011508   0.017158  -0.036973
    10  H   -0.028457  -0.006925   0.411972   0.017158  -0.011508  -0.036973
    11  H   -0.028457  -0.006925   0.017158   0.411972  -0.011508  -0.000555
    12  H   -0.028457  -0.006925  -0.011508   0.411972   0.017158   0.000536
    13  H   -0.028457  -0.006925  -0.011508   0.017158   0.411972   0.000536
    14  H   -0.028457  -0.006925   0.017158  -0.011508   0.411972  -0.000555
               7          8          9         10         11         12
     1  C   -0.020309  -0.020309  -0.028457  -0.028457  -0.028457  -0.028457
     2  H    0.007219   0.007219  -0.006925  -0.006925  -0.006925  -0.006925
     3  C   -0.011812  -0.011812   0.411972   0.411972   0.017158  -0.011508
     4  C    0.405550  -0.011812  -0.011508   0.017158   0.411972   0.411972
     5  C   -0.011812   0.405550   0.017158  -0.011508  -0.011508   0.017158
     6  H    0.004678   0.004678  -0.036973  -0.036973  -0.000555   0.000536
     7  H    0.599744   0.004678   0.000536  -0.000555  -0.036973  -0.036973
     8  H    0.004678   0.599744  -0.000555   0.000536   0.000536  -0.000555
     9  H    0.000536  -0.000555   0.593561  -0.027530   0.000069   0.001833
    10  H   -0.000555   0.000536  -0.027530   0.593561  -0.000625   0.000069
    11  H   -0.036973   0.000536   0.000069  -0.000625   0.593561  -0.027530
    12  H   -0.036973  -0.000555   0.001833   0.000069  -0.027530   0.593561
    13  H   -0.000555  -0.036973   0.000069   0.001833   0.000069  -0.000625
    14  H    0.000536  -0.036973  -0.000625   0.000069   0.001833   0.000069
              13         14
     1  C   -0.028457  -0.028457
     2  H   -0.006925  -0.006925
     3  C   -0.011508   0.017158
     4  C    0.017158  -0.011508
     5  C    0.411972   0.411972
     6  H    0.000536  -0.000555
     7  H   -0.000555   0.000536
     8  H   -0.036973  -0.036973
     9  H    0.000069  -0.000625
    10  H    0.001833   0.000069
    11  H    0.000069   0.001833
    12  H   -0.000625   0.000069
    13  H    0.593561  -0.027530
    14  H   -0.027530   0.593561
          Atomic-Atomic Spin Densities.
               1          2          3          4          5          6
     1  C   -0.000000  -0.000000  -0.000000  -0.000000  -0.000000   0.000000
     2  H   -0.000000  -0.000000   0.000000   0.000000   0.000000  -0.000000
     3  C   -0.000000   0.000000  -0.000000   0.000000   0.000000  -0.000000
     4  C   -0.000000   0.000000   0.000000  -0.000000   0.000000   0.000000
     5  C   -0.000000   0.000000   0.000000   0.000000  -0.000000   0.000000
     6  H    0.000000  -0.000000  -0.000000   0.000000   0.000000  -0.000000
     7  H    0.000000  -0.000000   0.000000  -0.000000   0.000000  -0.000000
     8  H    0.000000  -0.000000   0.000000   0.000000  -0.000000  -0.000000
     9  H    0.000000   0.000000  -0.000000   0.000000  -0.000000   0.000000
    10  H    0.000000   0.000000  -0.000000  -0.000000   0.000000   0.000000
    11  H    0.000000   0.000000  -0.000000  -0.000000   0.000000   0.000000
    12  H    0.000000   0.000000   0.000000  -0.000000  -0.000000  -0.000000
    13  H    0.000000   0.000000   0.000000  -0.000000  -0.000000  -0.000000
    14  H    0.000000   0.000000  -0.000000   0.000000  -0.000000   0.000000
               7          8          9         10         11         12
     1  C    0.000000   0.000000   0.000000   0.000000   0.000000   0.000000
     2  H   -0.000000  -0.000000   0.000000   0.000000   0.000000   0.000000
     3  C    0.000000   0.000000  -0.000000  -0.000000  -0.000000   0.000000
     4  C   -0.000000   0.000000   0.000000  -0.000000  -0.000000  -0.000000
     5  C    0.000000  -0.000000  -0.000000   0.000000   0.000000  -0.000000
     6  H   -0.000000  -0.000000   0.000000   0.000000   0.000000  -0.000000
     7  H   -0.000000  -0.000000  -0.000000   0.000000   0.000000   0.000000
     8  H   -0.000000  -0.000000   0.000000  -0.000000  -0.000000   0.000000
     9  H   -0.000000   0.000000  -0.000000   0.000000  -0.000000  -0.000000
    10  H    0.000000  -0.000000   0.000000  -0.000000   0.000000  -0.000000
    11  H    0.000000  -0.000000  -0.000000   0.000000  -0.000000   0.000000
    12  H    0.000000   0.000000  -0.000000  -0.000000   0.000000  -0.000000
    13  H    0.000000   0.000000  -0.000000  -0.000000  -0.000000   0.000000
    14  H   -0.000000   0.000000   0.000000  -0.000000  -0.000000  -0.000000
              13         14
     1  C    0.000000   0.000000
     2  H    0.000000   0.000000
     3  C    0.000000  -0.000000
     4  C   -0.000000   0.000000
     5  C   -0.000000  -0.000000
     6  H   -0.000000   0.000000
     7  H    0.000000  -0.000000
     8  H    0.000000   0.000000
     9  H   -0.000000   0.000000
    10  H   -0.000000  -0.000000
    11  H   -0.000000  -0.000000
    12  H    0.000000  -0.000000
    13  H   -0.000000   0.000000
    14  H    0.000000  -0.000000
 Mulliken charges and spin densities:
               1          2
     1  C    0.024568  -0.000000
     2  H    0.083721  -0.000000
     3  C   -0.306894  -0.000000
     4  C   -0.306894  -0.000000
     5  C   -0.306894  -0.000000
     6  H    0.096049  -0.000000
     7  H    0.096049  -0.000000
     8  H    0.096049  -0.000000
     9  H    0.087374  -0.000000
    10  H    0.087374  -0.000000
    11  H    0.087374  -0.000000
    12  H    0.087374  -0.000000
    13  H    0.087374  -0.000000
    14  H    0.087374  -0.000000
 Sum of Mulliken charges =  -0.00000  -0.00000
 Mulliken charges and spin densities with hydrogens summed into heavy atoms:
               1          2
     1  C    0.108289  -0.000000
     3  C   -0.036096  -0.000000
     4  C   -0.036096  -0.000000
     5  C   -0.036096  -0.000000
 Electronic spatial extent (au):  <R**2>=            355.0171
 Charge=             -0.0000 electrons
 Dipole moment (field-independent basis, Debye):
    X=              0.0000    Y=              0.0000    Z=              0.1267  Tot=              0.1267
 Quadrupole moment (field-independent basis, Debye-Ang):
   XX=            -29.1002   YY=            -29.1002   ZZ=            -28.3858
   XY=             -0.0000   XZ=              0.0000   YZ=             -0.0000
 Traceless Quadrupole moment (field-independent basis, Debye-Ang):
   XX=             -0.2381   YY=             -0.2381   ZZ=              0.4763
   XY=             -0.0000   XZ=              0.0000   YZ=             -0.0000
 Octapole moment (field-independent basis, Debye-Ang**2):
  XXX=              0.0000  YYY=             -1.9577  ZZZ=             -0.7789  XYY=              0.0000
  XXY=              1.9577  XXZ=              1.3404  XZZ=              0.0000  YZZ=              0.0000
  YYZ=              1.3404  XYZ=             -0.0000
 Hexadecapole moment (field-independent basis, Debye-Ang**3):
 XXXX=           -217.5139 YYYY=           -217.5139 ZZZZ=            -64.7571 XXXY=              0.0000
 XXXZ=              0.0000 YYYX=              0.0000 YYYZ=             -1.0916 ZZZX=              0.0000
 ZZZY=             -0.0000 XXYY=            -72.5046 XXZZ=            -48.1911 YYZZ=            -48.1911
 XXYZ=              1.0916 YYXZ=              0.0000 ZZXY=              0.0000
 N-N= 1.345437026348D+02 E-N=-6.344426759459D+02  KE= 1.572314834043D+02
 Symmetry A'   KE= 1.141026807336D+02
 Symmetry A"   KE= 4.312880267077D+01
 Symmetry A'   SP=-8.901200957394D-15
 Symmetry A"   SP=-4.860777044906D-15
                          Isotropic Fermi Contact Couplings
        Atom                 a.u.       MegaHertz       Gauss      10(-4) cm-1
     1  C(13)             -0.00000      -0.00000      -0.00000      -0.00000
     2  H(1)              -0.00000      -0.00000      -0.00000      -0.00000
     3  C(13)             -0.00000      -0.00000      -0.00000      -0.00000
     4  C(13)             -0.00000      -0.00000      -0.00000      -0.00000
     5  C(13)             -0.00000      -0.00000      -0.00000      -0.00000
     6  H(1)              -0.00000      -0.00000      -0.00000      -0.00000
     7  H(1)              -0.00000      -0.00000      -0.00000      -0.00000
     8  H(1)              -0.00000      -0.00000      -0.00000      -0.00000
     9  H(1)              -0.00000      -0.00000      -0.00000      -0.00000
    10  H(1)              -0.00000      -0.00000      -0.00000      -0.00000
    11  H(1)              -0.00000      -0.00000      -0.00000      -0.00000
    12  H(1)              -0.00000      -0.00000      -0.00000      -0.00000
    13  H(1)              -0.00000      -0.00000      -0.00000      -0.00000
    14  H(1)              -0.00000      -0.00000      -0.00000      -0.00000
 --------------------------------------------------------
       Center         ----  Spin Dipole Couplings  ----
                      3XX-RR        3YY-RR        3ZZ-RR
 --------------------------------------------------------
     1   Atom        0.000000      0.000000      0.000000
     2   Atom        0.000000      0.000000      0.000000
     3   Atom        0.000000      0.000000      0.000000
     4   Atom        0.000000      0.000000      0.000000
     5   Atom        0.000000      0.000000      0.000000
     6   Atom        0.000000      0.000000      0.000000
     7   Atom        0.000000      0.000000      0.000000
     8   Atom        0.000000      0.000000      0.000000
     9   Atom        0.000000      0.000000      0.000000
    10   Atom        0.000000      0.000000      0.000000
    11   Atom        0.000000      0.000000      0.000000
    12   Atom        0.000000      0.000000      0.000000
    13   Atom        0.000000      0.000000      0.000000
    14   Atom        0.000000      0.000000      0.000000
 --------------------------------------------------------
                        XY            XZ            YZ
 --------------------------------------------------------
     1   Atom        0.000000      0.000000      0.000000
     2   Atom        0.000000      0.000000      0.000000
     3   Atom        0.000000      0.000000      0.000000
     4   Atom        0.000000      0.000000      0.000000
     5   Atom        0.000000      0.000000      0.000000
     6   Atom        0.000000      0.000000      0.000000
     7   Atom        0.000000      0.000000      0.000000
     8   Atom        0.000000      0.000000      0.000000
     9   Atom        0.000000      0.000000      0.000000
    10   Atom        0.000000      0.000000      0.000000
    11   Atom        0.000000      0.000000      0.000000
    12   Atom        0.000000      0.000000      0.000000
    13   Atom        0.000000      0.000000      0.000000
    14   Atom        0.000000      0.000000      0.000000
 --------------------------------------------------------


 ---------------------------------------------------------------------------------
              Anisotropic Spin Dipole Couplings in Principal Axis System
 ---------------------------------------------------------------------------------

       Atom             a.u.   MegaHertz   Gauss  10(-4) cm-1        Axes

              Baa     0.0000     0.000     0.000     0.000  1.0000  0.0000  0.0000
     1 C(13)  Bbb     0.0000     0.000     0.000     0.000 -0.0000  1.0000  0.0000
              Bcc     0.0000     0.000     0.000     0.000  0.0000  0.0000  1.0000
 
              Baa     0.0000     0.000     0.000     0.000  1.0000  0.0000  0.0000
     2 H(1)   Bbb     0.0000     0.000     0.000     0.000 -0.0000  1.0000  0.0000
              Bcc     0.0000     0.000     0.000     0.000  0.0000  0.0000  1.0000
 
              Baa     0.0000     0.000     0.000     0.000  1.0000  0.0000  0.0000
     3 C(13)  Bbb     0.0000     0.000     0.000     0.000 -0.0000  1.0000  0.0000
              Bcc     0.0000     0.000     0.000     0.000  0.0000  0.0000  1.0000
 
              Baa     0.0000     0.000     0.000     0.000  1.0000  0.0000  0.0000
     4 C(13)  Bbb     0.0000     0.000     0.000     0.000 -0.0000  1.0000  0.0000
              Bcc     0.0000     0.000     0.000     0.000  0.0000  0.0000  1.0000
 
              Baa     0.0000     0.000     0.000     0.000  1.0000  0.0000  0.0000
     5 C(13)  Bbb     0.0000     0.000     0.000     0.000 -0.0000  1.0000  0.0000
              Bcc     0.0000     0.000     0.000     0.000  0.0000  0.0000  1.0000
 
              Baa     0.0000     0.000     0.000     0.000  1.0000  0.0000  0.0000
     6 H(1)   Bbb     0.0000     0.000     0.000     0.000 -0.0000  1.0000  0.0000
              Bcc     0.0000     0.000     0.000     0.000  0.0000  0.0000  1.0000
 
              Baa     0.0000     0.000     0.000     0.000  1.0000  0.0000  0.0000
     7 H(1)   Bbb     0.0000     0.000     0.000     0.000 -0.0000  1.0000  0.0000
              Bcc     0.0000     0.000     0.000     0.000  0.0000  0.0000  1.0000
 
              Baa     0.0000     0.000     0.000     0.000  1.0000  0.0000  0.0000
     8 H(1)   Bbb     0.0000     0.000     0.000     0.000 -0.0000  1.0000  0.0000
              Bcc     0.0000     0.000     0.000     0.000  0.0000  0.0000  1.0000
 
              Baa     0.0000     0.000     0.000     0.000  1.0000  0.0000  0.0000
     9 H(1)   Bbb     0.0000     0.000     0.000     0.000 -0.0000  1.0000  0.0000
              Bcc     0.0000     0.000     0.000     0.000  0.0000  0.0000  1.0000
 
              Baa     0.0000     0.000     0.000     0.000  1.0000  0.0000  0.0000
    10 H(1)   Bbb     0.0000     0.000     0.000     0.000 -0.0000  1.0000  0.0000
              Bcc     0.0000     0.000     0.000     0.000  0.0000  0.0000  1.0000
 
              Baa     0.0000     0.000     0.000     0.000  1.0000  0.0000  0.0000
    11 H(1)   Bbb     0.0000     0.000     0.000     0.000 -0.0000  1.0000  0.0000
              Bcc     0.0000     0.000     0.000     0.000  0.0000  0.0000  1.0000
 
              Baa     0.0000     0.000     0.000     0.000  1.0000  0.0000  0.0000
    12 H(1)   Bbb     0.0000     0.000     0.000     0.000 -0.0000  1.0000  0.0000
              Bcc     0.0000     0.000     0.000     0.000  0.0000  0.0000  1.0000
 
              Baa     0.0000     0.000     0.000     0.000  1.0000  0.0000  0.0000
    13 H(1)   Bbb     0.0000     0.000     0.000     0.000 -0.0000  1.0000  0.0000
              Bcc     0.0000     0.000     0.000     0.000  0.0000  0.0000  1.0000
 
              Baa     0.0000     0.000     0.000     0.000  1.0000  0.0000  0.0000
    14 H(1)   Bbb     0.0000     0.000     0.000     0.000 -0.0000  1.0000  0.0000
              Bcc     0.0000     0.000     0.000     0.000  0.0000  0.0000  1.0000
 

 ---------------------------------------------------------------------------------

 1\1\GINC-GAMBA\SP\ROHF\Gen\C4H10\IRIKURA\29-Sep-2023\0\\# rohf/gen geo
 m=check guess=check\\i-butane, ROHF/cc-pVTZ-F12\\0,1\C,0,0.,0.00000026
 47,0.371305\H,0,0.,0.0000002647,1.466599\C,0,0.,1.458003,-0.095462\C,0
 ,1.2626674076,-0.7290011029,-0.095462\C,0,-1.2626674076,-0.7290011029,
 -0.095462\H,0,0.,1.515531,-1.186988\H,0,1.312488117,-0.7577651029,-1.1
 86988\H,0,-1.312488117,-0.7577651029,-1.186988\H,0,0.882095,1.990712,0
 .264143\H,0,-0.882095,1.990712,0.264143\H,0,1.2829594344,-1.7592722815
 ,0.264143\H,0,2.1650544344,-0.2314389244,0.264143\H,0,-2.1650544344,-0
 .2314389244,0.264143\H,0,-1.2829594344,-1.7592722815,0.264143\\Version
 =ES64L-G16RevB.01\State=1-A1\HF=-157.3651572\RMSD=1.317e-09\Dipole=0.,
 0.,0.0498427\Quadrupole=-0.1770537,-0.1770537,0.3541073,0.,0.,0.\PG=C0
 3V [C3(C1H1),3SGV(C1H1),X(H6)]\\@


 ONE OF THE BENEFITS OF A COLLEGE EDUCATION
 IS TO SHOW THE BOY ITS LITTLE AVAIL 
                                    EMERSON IN 'CULTURE'
 Job cpu time:       0 days  0 hours  3 minutes 16.0 seconds.
 Elapsed time:       0 days  0 hours  0 minutes 49.1 seconds.
 File lengths (MBytes):  RWF=    111 Int=      0 D2E=      0 Chk=     15 Scr=      1
 Normal termination of Gaussian 16 at Fri Sep 29 13:15:22 2023.
