 Entering Gaussian System, Link 0=g16
 AtFile(1): pcseg2.gbs
            -H     0
            S   4   1.00
                  0.754732D+02           0.427821D-02
                  0.113575D+02           0.328672D-01
                  0.260081D+01           0.159578D+00
                  0.735503D+00           0.500000D+00
            S   1   1.00
                  0.231761D+00           1.0000000
            S   1   1.00
                  0.741675D-01           1.0000000
            P   1   1.00
                  0.160000D+01           1.0000000
            P   1   1.00
                  0.450000D+00           1.0000000
            D   1   1.00
                  0.125000D+01           1.0000000
            ****
            -C     0
            S   7   1.00
                  0.731999D+04           0.695369D-03
                  0.109818D+04           0.537138D-02
                  0.250014D+03           0.274734D-01
                  0.707586D+02           0.105078D+00
                  0.228595D+02           0.291262D+00
                  0.803936D+01           0.500000D+00
                  0.289309D+01           0.362224D+00
            S   2   1.00
                  0.521640D+01          -0.957844D-01
                  0.556124D+00           0.500000D+00
            S   1   1.00
                  0.228813D+00           1.0000000
            S   1   1.00
                  0.936338D-01           1.0000000
            P   4   1.00
                  0.339855D+02           0.818395D-02
                  0.772957D+01           0.586921D-01
                  0.224954D+01           0.222514D+00
                  0.767681D+00           0.500000D+00
            P   1   1.00
                  0.263283D+00           1.0000000
            P   1   1.00
                  0.848744D-01           1.0000000
            D   1   1.00
                  0.140000D+01           1.0000000
            D   1   1.00
                  0.450000D+00           1.0000000
            F   1   1.00
                  0.950000D+00           1.0000000
            ****
            -O     0
            S   7   1.00
                  0.135887D+05           0.665492D-03
                  0.203847D+04           0.514222D-02
                  0.464041D+03           0.263472D-01
                  0.131339D+03           0.101500D+00
                  0.425340D+02           0.285877D+00
                  0.150429D+02           0.500000D+00
                  0.546616D+01           0.368211D+00
            S   2   1.00
                  0.100915D+02          -0.100084D+00
                  0.110429D+01           0.500000D+00
            S   1   1.00
                  0.448082D+00           1.0000000
            S   1   1.00
                  0.175325D+00           1.0000000
            P   4   1.00
                  0.608220D+02           0.908253D-02
                  0.140332D+02           0.645878D-01
                  0.418244D+01           0.241502D+00
                  0.142490D+01           0.500000D+00
            P   1   1.00
                  0.478741D+00           1.0000000
            P   1   1.00
                  0.146257D+00           1.0000000
            D   1   1.00
                  0.220000D+01           1.0000000
            D   1   1.00
                  0.650000D+00           1.0000000
            F   1   1.00
                  0.110000D+01           1.0000000
            ****
            -N     0
            S   7   1.00
                  0.101643D+05           0.682757D-03
                  0.152481D+04           0.527488D-02
                  0.347119D+03           0.270037D-01
                  0.982389D+02           0.103673D+00
                  0.317799D+02           0.289575D+00
                  0.112240D+02           0.500000D+00
                  0.406611D+01           0.364621D+00
            S   2   1.00
                  0.747898D+01          -0.975681D-01
                  0.805040D+00           0.500000D+00
            S   1   1.00
                  0.324626D+00           1.0000000
            S   1   1.00
                  0.128132D+00           1.0000000
            P   4   1.00
                  0.482704D+02           0.829547D-02
                  0.110815D+02           0.596223D-01
                  0.326643D+01           0.227889D+00
                  0.111680D+01           0.500000D+00
            P   1   1.00
                  0.382049D+00           1.0000000
            P   1   1.00
                  0.121222D+00           1.0000000
            D   1   1.00
                  0.180000D+01           1.0000000
            D   1   1.00
                  0.550000D+00           1.0000000
            F   1   1.00
                  0.102000D+01           1.0000000
            ****
            -F     0
            S   7   1.00
                  0.174507D+05           0.655972D-03
                  0.261768D+04           0.506944D-02
                  0.595857D+03           0.259899D-01
                  0.168651D+03           0.100353D+00
                  0.546654D+02           0.284095D+00
                  0.193717D+02           0.500000D+00
                  0.706202D+01           0.370721D+00
            S   2   1.00
                  0.131197D+02          -0.101997D+00
                  0.145046D+01           0.500000D+00
            S   1   1.00
                  0.588255D+00           1.0000000
            S   1   1.00
                  0.227960D+00           1.0000000
            P   4   1.00
                  0.779407D+02           0.931135D-02
                  0.180425D+02           0.663964D-01
                  0.542342D+01           0.246386D+00
                  0.184876D+01           0.500000D+00
            P   1   1.00
                  0.617455D+00           1.0000000
            P   1   1.00
                  0.185496D+00           1.0000000
            D   1   1.00
                  0.280000D+01           1.0000000
            D   1   1.00
                  0.800000D+00           1.0000000
            F   1   1.00
                  0.120000D+01           1.0000000
            ****
            -Cl     0
            S   8   1.00
                  0.154272D+06           0.222473D-03
                  0.231232D+05           0.172590D-02
                  0.526257D+04           0.899286D-02
                  0.148995D+04           0.367724D-01
                  0.485417D+03           0.121446D+00
                  0.174634D+03           0.304148D+00
                  0.672393D+02           0.500000D+00
                  0.265780D+02           0.360252D+00
            S   3   1.00
                  0.131826D+03          -0.531330D-01
                  0.400703D+02          -0.233346D+00
                  0.789448D+01           0.500000D+00
            S   2   1.00
                  0.427711D+01           0.500000D+00
                  0.196233D+01           0.370517D+00
            S   1   1.00
                  0.520793D+00           1.0000000
            S   1   1.00
                  0.181633D+00           1.0000000
            P   7   1.00
                  0.124440D+04           0.988206D-03
                  0.295109D+03           0.829674D-02
                  0.947224D+02           0.430906D-01
                  0.352588D+02           0.148443D+00
                  0.144211D+02           0.344744D+00
                  0.610371D+01           0.500000D+00
                  0.258886D+01           0.348278D+00
            P   2   1.00
                  0.109447D+02          -0.196768D-01
                  0.104413D+01           0.500000D+00
            P   1   1.00
                  0.376184D+00           1.0000000
            P   1   1.00
                  0.120613D+00           1.0000000
            D   1   1.00
                  0.231000D+01           1.0000000
            D   1   1.00
                  0.520000D+00           1.0000000
            F   1   1.00
                  0.720000D+00           1.0000000
            ****
            -S     0
            S   8   1.00
                  0.134700D+06           0.226231D-03
                  0.201904D+05           0.175488D-02
                  0.459528D+04           0.914190D-02
                  0.130109D+04           0.373551D-01
                  0.423902D+03           0.123121D+00
                  0.152485D+03           0.306801D+00
                  0.586925D+02           0.500000D+00
                  0.231461D+02           0.354358D+00
            S   3   1.00
                  0.116327D+03          -0.491772D-01
                  0.352841D+02          -0.215962D+00
                  0.677831D+01           0.500000D+00
            S   2   1.00
                  0.360404D+01           0.500000D+00
                  0.164871D+01           0.366278D+00
            S   1   1.00
                  0.421821D+00           1.0000000
            S   1   1.00
                  0.147554D+00           1.0000000
            P   7   1.00
                  0.104863D+04           0.105273D-02
                  0.248717D+03           0.879338D-02
                  0.797887D+02           0.453358D-01
                  0.296023D+02           0.154476D+00
                  0.120627D+02           0.352366D+00
                  0.507628D+01           0.500000D+00
                  0.213375D+01           0.346429D+00
            P   2   1.00
                  0.928958D+01          -0.185932D-01
                  0.837819D+00           0.500000D+00
            P   1   1.00
                  0.301495D+00           1.0000000
            P   1   1.00
                  0.974740D-01           1.0000000
            D   1   1.00
                  0.210000D+01           1.0000000
            D   1   1.00
                  0.480000D+00           1.0000000
            F   1   1.00
                  0.660000D+00           1.0000000
            ****
            -Br     0
            S    10   1.00
                  0.233625D+07           0.532336D-04
                  0.349961D+06           0.413715D-03
                  0.796444D+05           0.217123D-02
                  0.225555D+05           0.910109D-02
                  0.735546D+04           0.323789D-01
                  0.265352D+04           0.988755D-01
                  0.103517D+04           0.248138D+00
                  0.422205D+03           0.474328D+00
                  0.180035D+03           0.500000D+00
                  0.793308D+02           0.187769D+00
            S    4   1.00
                  0.620834D+03          -0.226511D-01
                  0.190829D+03          -0.109497D+00
                  0.312505D+02           0.500000D+00
                  0.135270D+02           0.492812D+00
            S    2   1.00
                  0.216097D+02          -0.165418D+00
                  0.372566D+01           0.500000D+00
            S    1   1.00
                  0.169770D+01           1.0000000
            S    1   1.00
                  0.489332D+00           1.0000000
            S    1   1.00
                  0.175712D+00           1.0000000
            P    8   1.00
                  0.960829D+04           0.478974D-03
                  0.227618D+04           0.417853D-02
                  0.736723D+03           0.229315D-01
                  0.281579D+03           0.892653D-01
                  0.118395D+03           0.255288D+00
                  0.527481D+02           0.479074D+00
                  0.245098D+02           0.500000D+00
                  0.112009D+02           0.200944D+00
            P    4   1.00
                  0.587849D+02          -0.189674D-01
                  0.918962D+01           0.264104D+00
                  0.413895D+01           0.500000D+00
                  0.184225D+01           0.319316D+00
            P    1   1.00
                  0.713862D+00           1.0000000
            P    1   1.00
                  0.274232D+00           1.0000000
            P    1   1.00
                  0.944411D-01           1.0000000
            D    7   1.00
                  0.398470D+03           0.204066D-02
                  0.118967D+03           0.175171D-01
                  0.450197D+02           0.829708D-01
                  0.190320D+02           0.236284D+00
                  0.855686D+01           0.428468D+00
                  0.382950D+01           0.500000D+00
                  0.166291D+01           0.349360D+00
            D    1   1.00
                  0.672953D+00           1.0000000
            D    1   1.00
                  0.252000D+00           1.0000000
            F    1   1.00
                  0.530000D+00           1.0000000
            ****
            -Si     0
            S    8   1.00
                  0.996133D+05           0.235546D-03
                  0.149311D+05           0.182707D-02
                  0.339820D+04           0.951425D-02
                  0.962140D+03           0.388172D-01
                  0.313430D+03           0.127328D+00
                  0.112683D+03           0.313522D+00
                  0.433372D+02           0.500000D+00
                  0.170029D+02           0.340347D+00
            S    3   1.00
                  0.884208D+02          -0.404451D-01
                  0.266756D+02          -0.178059D+00
                  0.479640D+01           0.500000D+00
            S    2   1.00
                  0.239385D+01           0.500000D+00
                  0.108333D+01           0.338016D+00
            S    1   1.00
                  0.252420D+00           1.0000000
            S    1   1.00
                  0.891210D-01           1.0000000
            P    7   1.00
                  0.709901D+03           0.123028D-02
                  0.168426D+03           0.101366D-01
                  0.539946D+02           0.511840D-01
                  0.198646D+02           0.169967D+00
                  0.801369D+01           0.370717D+00
                  0.331870D+01           0.500000D+00
                  0.136112D+01           0.344128D+00
            P    2   1.00
                  0.622158D+01          -0.166609D-01
                  0.503049D+00           0.500000D+00
            P    1   1.00
                  0.179848D+00           1.0000000
            P    1   1.00
                  0.591912D-01           1.0000000
            D    1   1.00
                  0.168000D+01           1.0000000
            D    1   1.00
                  0.380000D+00           1.0000000
            F    1   1.00
                  0.540000D+00           1.0000000
            ****
            -P     0
            S    8   1.00
                  0.116416D+06           0.230715D-03
                  0.174500D+05           0.178960D-02
                  0.397149D+04           0.932116D-02
                  0.112447D+04           0.380591D-01
                  0.366347D+03           0.125148D+00
                  0.131757D+03           0.310022D+00
                  0.506988D+02           0.500000D+00
                  0.199436D+02           0.347528D+00
            S    3   1.00
                  0.101878D+03          -0.446755D-01
                  0.308249D+02          -0.196376D+00
                  0.573688D+01           0.500000D+00
            S    2   1.00
                  0.296868D+01           0.500000D+00
                  0.135315D+01           0.355098D+00
            S    1   1.00
                  0.332196D+00           1.0000000
            S    1   1.00
                  0.116229D+00           1.0000000
            P    7   1.00
                  0.873928D+03           0.112375D-02
                  0.207298D+03           0.933330D-02
                  0.664628D+02           0.477213D-01
                  0.245665D+02           0.160733D+00
                  0.996820D+01           0.359760D+00
                  0.416536D+01           0.500000D+00
                  0.173022D+01           0.346593D+00
            P    2   1.00
                  0.772530D+01          -0.175718D-01
                  0.657252D+00           0.500000D+00
            P    1   1.00
                  0.239903D+00           1.0000000
            P    1   1.00
                  0.800988D-01           1.0000000
            D    1   1.00
                  0.189000D+01           1.0000000
            D    1   1.00
                  0.430000D+00           1.0000000
            F    1   1.00
                  0.600000D+00           1.0000000
            ****
            
 Initial command:
 /usr/local/apps/g16_b01_avx/g16/l1.exe "/wrk/irikura/Gau-395511.inp" -scrdir="/wrk/irikura/"
 Entering Link 1 = /usr/local/apps/g16_b01_avx/g16/l1.exe PID=    395513.
  
 Copyright (c) 1988-2017, Gaussian, Inc.  All Rights Reserved.
  
 This is part of the Gaussian(R) 16 program.  It is based on
 the Gaussian(R) 09 system (copyright 2009, Gaussian, Inc.),
 the Gaussian(R) 03 system (copyright 2003, Gaussian, Inc.),
 the Gaussian(R) 98 system (copyright 1998, Gaussian, Inc.),
 the Gaussian(R) 94 system (copyright 1995, Gaussian, Inc.),
 the Gaussian 92(TM) system (copyright 1992, Gaussian, Inc.),
 the Gaussian 90(TM) system (copyright 1990, Gaussian, Inc.),
 the Gaussian 88(TM) system (copyright 1988, Gaussian, Inc.),
 the Gaussian 86(TM) system (copyright 1986, Carnegie Mellon
 University), and the Gaussian 82(TM) system (copyright 1983,
 Carnegie Mellon University). Gaussian is a federally registered
 trademark of Gaussian, Inc.
  
 This software contains proprietary and confidential information,
 including trade secrets, belonging to Gaussian, Inc.
  
 This software is provided under written license and may be
 used, copied, transmitted, or stored only in accord with that
 written license.
  
 The following legend is applicable only to US Government
 contracts under FAR:
  
                    RESTRICTED RIGHTS LEGEND
  
 Use, reproduction and disclosure by the US Government is
 subject to restrictions as set forth in subparagraphs (a)
 and (c) of the Commercial Computer Software - Restricted
 Rights clause in FAR 52.227-19.
  
 Gaussian, Inc.
 340 Quinnipiac St., Bldg. 40, Wallingford CT 06492
  
  
 ---------------------------------------------------------------
 Warning -- This program may not be used in any manner that
 competes with the business of Gaussian, Inc. or will provide
 assistance to any competitor of Gaussian, Inc.  The licensee
 of this program is prohibited from giving any competitor of
 Gaussian, Inc. access to this program.  By using this program,
 the user acknowledges that Gaussian, Inc. is engaged in the
 business of creating and licensing software in the field of
 computational chemistry and represents and warrants to the
 licensee that it is not a competitor of Gaussian, Inc. and that
 it will not use this program in any manner prohibited above.
 ---------------------------------------------------------------
  

 Cite this work as:
 Gaussian 16, Revision B.01,
 M. J. Frisch, G. W. Trucks, H. B. Schlegel, G. E. Scuseria, 
 M. A. Robb, J. R. Cheeseman, G. Scalmani, V. Barone, 
 G. A. Petersson, H. Nakatsuji, X. Li, M. Caricato, A. V. Marenich, 
 J. Bloino, B. G. Janesko, R. Gomperts, B. Mennucci, H. P. Hratchian, 
 J. V. Ortiz, A. F. Izmaylov, J. L. Sonnenberg, D. Williams-Young, 
 F. Ding, F. Lipparini, F. Egidi, J. Goings, B. Peng, A. Petrone, 
 T. Henderson, D. Ranasinghe, V. G. Zakrzewski, J. Gao, N. Rega, 
 G. Zheng, W. Liang, M. Hada, M. Ehara, K. Toyota, R. Fukuda, 
 J. Hasegawa, M. Ishida, T. Nakajima, Y. Honda, O. Kitao, H. Nakai, 
 T. Vreven, K. Throssell, J. A. Montgomery, Jr., J. E. Peralta, 
 F. Ogliaro, M. J. Bearpark, J. J. Heyd, E. N. Brothers, K. N. Kudin, 
 V. N. Staroverov, T. A. Keith, R. Kobayashi, J. Normand, 
 K. Raghavachari, A. P. Rendell, J. C. Burant, S. S. Iyengar, 
 J. Tomasi, M. Cossi, J. M. Millam, M. Klene, C. Adamo, R. Cammi, 
 J. W. Ochterski, R. L. Martin, K. Morokuma, O. Farkas, 
 J. B. Foresman, and D. J. Fox, Gaussian, Inc., Wallingford CT, 2016.
 
 ******************************************
 Gaussian 16:  ES64L-G16RevB.01 20-Dec-2017
                29-Sep-2023 
 ******************************************
 %chk=isobutene.chk
 %mem=500mw
 %nprocs=4
 Will use up to    4 processors via shared memory.
 ---------------------------------------
 # b3lyp/gen opt freq CPHF(Grid=OneStep)
 ---------------------------------------
 1/18=20,19=15,26=3,38=1/1,3;
 2/9=110,12=2,17=6,18=5,40=1/2;
 3/5=7,11=2,25=1,30=1,71=1,74=-5/1,2,3;
 4//1;
 5/5=2,38=5/2;
 6/7=2,8=2,9=2,10=2,28=1/1;
 7//1,2,3,16;
 1/18=20,19=15,26=3/3(2);
 2/9=110/2;
 99//99;
 2/9=110/2;
 3/5=7,6=1,11=2,25=1,30=1,71=1,74=-5,82=7/1,2,3;
 4/5=5,16=3,69=1/1;
 5/5=2,38=5/2;
 7//1,2,3,16;
 1/18=20,19=15,26=3/3(-5);
 2/9=110/2;
 6/7=2,8=2,9=2,10=2,19=2,28=1/1;
 99/9=1/99;
 ------------------------
 isobutene, B3LYP/pcseg-2
 ------------------------
 Symbolic Z-matrix:
 Charge =  0 Multiplicity = 1
 C                     0.        0.        0.12401 
 C                     0.        0.        1.45468 
 H                     0.        0.92172   2.02202 
 H                     0.       -0.92172   2.02202 
 C                     0.        1.27253  -0.67694 
 C                     0.       -1.27253  -0.67694 
 H                     0.        2.15398  -0.03779 
 H                     0.87625   1.32151  -1.32932 
 H                    -0.87625   1.32151  -1.32932 
 H                     0.       -2.15398  -0.03779 
 H                    -0.87625  -1.32151  -1.32932 
 H                     0.87625  -1.32151  -1.32932 
 

 GradGradGradGradGradGradGradGradGradGradGradGradGradGradGradGradGradGrad
 Berny optimization.
 Initialization pass.
                           ----------------------------
                           !    Initial Parameters    !
                           ! (Angstroms and Degrees)  !
 --------------------------                            --------------------------
 ! Name  Definition              Value          Derivative Info.                !
 --------------------------------------------------------------------------------
 ! R1    R(1,2)                  1.3307         estimate D2E/DX2                !
 ! R2    R(1,5)                  1.5036         estimate D2E/DX2                !
 ! R3    R(1,6)                  1.5036         estimate D2E/DX2                !
 ! R4    R(2,3)                  1.0823         estimate D2E/DX2                !
 ! R5    R(2,4)                  1.0823         estimate D2E/DX2                !
 ! R6    R(5,7)                  1.0888         estimate D2E/DX2                !
 ! R7    R(5,8)                  1.0935         estimate D2E/DX2                !
 ! R8    R(5,9)                  1.0935         estimate D2E/DX2                !
 ! R9    R(6,10)                 1.0888         estimate D2E/DX2                !
 ! R10   R(6,11)                 1.0935         estimate D2E/DX2                !
 ! R11   R(6,12)                 1.0935         estimate D2E/DX2                !
 ! A1    A(2,1,5)              122.1873         estimate D2E/DX2                !
 ! A2    A(2,1,6)              122.1873         estimate D2E/DX2                !
 ! A3    A(5,1,6)              115.6255         estimate D2E/DX2                !
 ! A4    A(1,2,3)              121.6131         estimate D2E/DX2                !
 ! A5    A(1,2,4)              121.6131         estimate D2E/DX2                !
 ! A6    A(3,2,4)              116.7738         estimate D2E/DX2                !
 ! A7    A(1,5,7)              111.8662         estimate D2E/DX2                !
 ! A8    A(1,5,8)              110.8363         estimate D2E/DX2                !
 ! A9    A(1,5,9)              110.8363         estimate D2E/DX2                !
 ! A10   A(7,5,8)              108.2972         estimate D2E/DX2                !
 ! A11   A(7,5,9)              108.2972         estimate D2E/DX2                !
 ! A12   A(8,5,9)              106.5096         estimate D2E/DX2                !
 ! A13   A(1,6,10)             111.8662         estimate D2E/DX2                !
 ! A14   A(1,6,11)             110.8363         estimate D2E/DX2                !
 ! A15   A(1,6,12)             110.8363         estimate D2E/DX2                !
 ! A16   A(10,6,11)            108.2972         estimate D2E/DX2                !
 ! A17   A(10,6,12)            108.2972         estimate D2E/DX2                !
 ! A18   A(11,6,12)            106.5096         estimate D2E/DX2                !
 ! D1    D(5,1,2,3)              0.0            estimate D2E/DX2                !
 ! D2    D(5,1,2,4)            180.0            estimate D2E/DX2                !
 ! D3    D(6,1,2,3)            180.0            estimate D2E/DX2                !
 ! D4    D(6,1,2,4)              0.0            estimate D2E/DX2                !
 ! D5    D(2,1,5,7)              0.0            estimate D2E/DX2                !
 ! D6    D(2,1,5,8)            120.9768         estimate D2E/DX2                !
 ! D7    D(2,1,5,9)           -120.9768         estimate D2E/DX2                !
 ! D8    D(6,1,5,7)            180.0            estimate D2E/DX2                !
 ! D9    D(6,1,5,8)            -59.0232         estimate D2E/DX2                !
 ! D10   D(6,1,5,9)             59.0232         estimate D2E/DX2                !
 ! D11   D(2,1,6,10)             0.0            estimate D2E/DX2                !
 ! D12   D(2,1,6,11)           120.9768         estimate D2E/DX2                !
 ! D13   D(2,1,6,12)          -120.9768         estimate D2E/DX2                !
 ! D14   D(5,1,6,10)           180.0            estimate D2E/DX2                !
 ! D15   D(5,1,6,11)           -59.0232         estimate D2E/DX2                !
 ! D16   D(5,1,6,12)            59.0232         estimate D2E/DX2                !
 --------------------------------------------------------------------------------
 Trust Radius=3.00D-01 FncErr=1.00D-07 GrdErr=1.00D-06 EigMax=2.50D+02 EigMin=1.00D-04
 Number of steps in this run=     55 maximum allowed number of steps=    100.
 GradGradGradGradGradGradGradGradGradGradGradGradGradGradGradGradGradGrad

                          Input orientation:                          
 ---------------------------------------------------------------------
 Center     Atomic      Atomic             Coordinates (Angstroms)
 Number     Number       Type             X           Y           Z
 ---------------------------------------------------------------------
      1          6           0        0.000000    0.000000    0.124014
      2          6           0        0.000000    0.000000    1.454677
      3          1           0        0.000000    0.921724    2.022016
      4          1           0        0.000000   -0.921724    2.022016
      5          6           0        0.000000    1.272525   -0.676943
      6          6           0        0.000000   -1.272525   -0.676943
      7          1           0        0.000000    2.153978   -0.037787
      8          1           0        0.876253    1.321507   -1.329322
      9          1           0       -0.876253    1.321507   -1.329322
     10          1           0        0.000000   -2.153978   -0.037787
     11          1           0       -0.876253   -1.321507   -1.329322
     12          1           0        0.876253   -1.321507   -1.329322
 ---------------------------------------------------------------------
                    Distance matrix (angstroms):
                    1          2          3          4          5
     1  C    0.000000
     2  C    1.330663   0.000000
     3  H    2.109973   1.082335   0.000000
     4  H    2.109973   1.082335   1.843448   0.000000
     5  C    1.503613   2.482564   2.721661   3.478377   0.000000
     6  C    1.503613   2.482564   3.478377   2.721661   2.545050
     7  H    2.160046   2.620509   2.400258   3.701720   1.088797
     8  H    2.150903   3.203881   3.486992   4.126908   1.093534
     9  H    2.150903   3.203881   3.486992   4.126908   1.093534
    10  H    2.160046   2.620509   3.701720   2.400258   3.485605
    11  H    2.150903   3.203881   4.126908   3.486992   2.814679
    12  H    2.150903   3.203881   4.126908   3.486992   2.814679
                    6          7          8          9         10
     6  C    0.000000
     7  H    3.485605   0.000000
     8  H    2.814679   1.768867   0.000000
     9  H    2.814679   1.768867   1.752506   0.000000
    10  H    1.088797   4.307956   3.809840   3.809840   0.000000
    11  H    1.093534   3.809840   3.171246   2.643014   1.768867
    12  H    1.093534   3.809840   2.643014   3.171246   1.768867
                   11         12
    11  H    0.000000
    12  H    1.752506   0.000000
 Stoichiometry    C4H8
 Framework group  C2V[C2(CC),SGV(C2H4),X(H4)]
 Deg. of freedom    10
 Full point group                 C2V     NOp   4
 Largest Abelian subgroup         C2V     NOp   4
 Largest concise Abelian subgroup C2V     NOp   4
                         Standard orientation:                         
 ---------------------------------------------------------------------
 Center     Atomic      Atomic             Coordinates (Angstroms)
 Number     Number       Type             X           Y           Z
 ---------------------------------------------------------------------
      1          6           0        0.000000   -0.000000    0.124014
      2          6           0        0.000000   -0.000000    1.454677
      3          1           0        0.000000    0.921724    2.022016
      4          1           0       -0.000000   -0.921724    2.022016
      5          6           0        0.000000    1.272525   -0.676943
      6          6           0       -0.000000   -1.272525   -0.676943
      7          1           0        0.000000    2.153978   -0.037787
      8          1           0        0.876253    1.321507   -1.329322
      9          1           0       -0.876253    1.321507   -1.329322
     10          1           0       -0.000000   -2.153978   -0.037787
     11          1           0       -0.876253   -1.321507   -1.329322
     12          1           0        0.876253   -1.321507   -1.329322
 ---------------------------------------------------------------------
 Rotational constants (GHZ):           9.1875995           8.4140826           4.6416363
 General basis read from cards:  (5D, 7F)
 There are    93 symmetry adapted cartesian basis functions of A1  symmetry.
 There are    40 symmetry adapted cartesian basis functions of A2  symmetry.
 There are    50 symmetry adapted cartesian basis functions of B1  symmetry.
 There are    77 symmetry adapted cartesian basis functions of B2  symmetry.
 There are    80 symmetry adapted basis functions of A1  symmetry.
 There are    38 symmetry adapted basis functions of A2  symmetry.
 There are    46 symmetry adapted basis functions of B1  symmetry.
 There are    68 symmetry adapted basis functions of B2  symmetry.
   232 basis functions,   348 primitive gaussians,   260 cartesian basis functions
    16 alpha electrons       16 beta electrons
       nuclear repulsion energy       119.8827883124 Hartrees.
 NAtoms=   12 NActive=   12 NUniq=    6 SFac= 4.00D+00 NAtFMM=   60 NAOKFM=F Big=F
 Integral buffers will be    131072 words long.
 Raffenetti 2 integral format.
 Two-electron integral symmetry is turned on.
 One-electron integrals computed using PRISM.
 NBasis=   232 RedAO= T EigKep=  1.48D-04  NBF=    80    38    46    68
 NBsUse=   232 1.00D-06 EigRej= -1.00D+00 NBFU=    80    38    46    68
 ExpMin= 7.42D-02 ExpMax= 7.32D+03 ExpMxC= 2.50D+02 IAcc=3 IRadAn=         5 AccDes= 0.00D+00
 Harris functional with IExCor=  402 and IRadAn=       5 diagonalized for initial guess.
 HarFok:  IExCor=  402 AccDes= 0.00D+00 IRadAn=         5 IDoV= 1 UseB2=F ITyADJ=14
 ICtDFT=  3500011 ScaDFX=  1.000000  1.000000  1.000000  1.000000
 FoFCou: FMM=F IPFlag=           0 FMFlag=      100000 FMFlg1=           0
         NFxFlg=           0 DoJE=T BraDBF=F KetDBF=T FulRan=T
         wScrn=  0.000000 ICntrl=       500 IOpCl=  0 I1Cent=   200000004 NGrid=           0
         NMat0=    1 NMatS0=      1 NMatT0=    0 NMatD0=    1 NMtDS0=    0 NMtDT0=    0
 Petite list used in FoFCou.
 Initial guess orbital symmetries:
       Occupied  (B2) (A1) (A1) (A1) (A1) (B2) (A1) (A1) (B2) (A1)
                 (B1) (A2) (A1) (B2) (B2) (B1)
       Virtual   (B1) (A1) (B2) (A1) (B2) (B1) (A1) (A1) (A2) (B2)
                 (A1) (B1) (B2) (A2) (A1) (B2) (A1) (A1) (B1) (B2)
                 (A1) (B1) (B1) (A1) (B2) (A1) (A2) (B2) (B2) (B2)
                 (A1) (A1) (A1) (A1) (B2) (B1) (B2) (A2) (A2) (A1)
                 (B2) (A1) (A2) (B1) (A1) (B2) (B1) (B2) (A1) (B2)
                 (A2) (B1) (A2) (B2) (A1) (B1) (A1) (A2) (B1) (A1)
                 (B2) (B2) (B1) (A1) (A1) (B1) (A1) (B2) (B1) (A2)
                 (A1) (B2) (A2) (B1) (A1) (B2) (A1) (B2) (B1) (B2)
                 (A1) (A2) (B2) (A1) (A1) (B2) (A2) (A1) (B1) (B2)
                 (A1) (B2) (A1) (A1) (B2) (A1) (B2) (A2) (B1) (A1)
                 (B2) (A1) (A2) (B2) (B1) (B1) (A1) (B2) (B2) (B1)
                 (A2) (A2) (B1) (A1) (B2) (B1) (A1) (A2) (A1) (B2)
                 (B2) (A1) (B1) (A2) (B2) (A1) (A2) (B1) (B1) (A1)
                 (A2) (A1) (B2) (B2) (A2) (A2) (A1) (B1) (A2) (B1)
                 (A1) (B2) (B2) (A2) (A1) (A1) (B2) (B1) (B1) (A1)
                 (B2) (A1) (B1) (A2) (A1) (B2) (B1) (A2) (B2) (A1)
                 (B1) (A2) (B1) (A1) (A2) (B2) (B2) (A1) (B1) (A1)
                 (A2) (B2) (B1) (B2) (A1) (A1) (B1) (A2) (B2) (B2)
                 (B1) (A1) (B2) (A1) (A2) (A1) (B2) (B1) (A1) (B2)
                 (A1) (B2) (A2) (A1) (B2) (B1) (A2) (A1) (A2) (B1)
                 (B2) (A1) (B1) (A2) (A1) (B2) (B2) (A1) (B1) (A2)
                 (A1) (B2) (B2) (A1) (B2) (A1)
 The electronic state of the initial guess is 1-A1.
 Keep R1 ints in memory in symmetry-blocked form, NReq=457259519.
 Requested convergence on RMS density matrix=1.00D-08 within 128 cycles.
 Requested convergence on MAX density matrix=1.00D-06.
 Requested convergence on             energy=1.00D-06.
 No special actions if energy rises.
 Integral accuracy reduced to 1.0D-05 until final iterations.
 Initial convergence to 1.0D-05 achieved.  Increase integral accuracy.
 SCF Done:  E(RB3LYP) =  -157.294710140     A.U. after   12 cycles
            NFock= 12  Conv=0.24D-08     -V/T= 2.0045

 **********************************************************************

            Population analysis using the SCF Density.

 **********************************************************************

 Orbital symmetries:
       Occupied  (A1) (B2) (A1) (A1) (A1) (B2) (A1) (A1) (B2) (A1)
                 (B1) (A2) (B2) (A1) (B2) (B1)
       Virtual   (B1) (A1) (B2) (A1) (B2) (B1) (A1) (A2) (A1) (B2)
                 (A1) (B1) (B2) (A2) (A1) (A1) (B1) (B2) (B2) (A1)
                 (B1) (A1) (B2) (A1) (B1) (A2) (A1) (B2) (B2) (A1)
                 (B2) (A1) (A1) (A1) (B2) (B2) (B1) (A2) (A2) (A1)
                 (B2) (A1) (B1) (A2) (B2) (B1) (A1) (B2) (A2) (B2)
                 (B1) (A1) (A2) (B2) (B1) (A1) (A2) (A1) (A1) (B1)
                 (B2) (A1) (B2) (B1) (A1) (A1) (B1) (B2) (B1) (A2)
                 (A1) (B2) (A2) (A1) (B1) (B2) (A1) (B2) (B1) (B2)
                 (A1) (A2) (B2) (A1) (A1) (B2) (A2) (B1) (A1) (B2)
                 (A1) (B2) (A1) (A1) (B2) (A1) (B2) (A2) (B1) (A1)
                 (B2) (A1) (A2) (B2) (B1) (B1) (A1) (B2) (B2) (B1)
                 (A2) (A2) (B1) (A1) (B2) (B1) (A2) (A1) (A1) (B2)
                 (B2) (A1) (A2) (B1) (B2) (A1) (A2) (B1) (A2) (A1)
                 (B1) (A1) (B2) (A2) (B2) (A1) (A2) (B1) (A2) (B1)
                 (A1) (B2) (A1) (B2) (A2) (A1) (B2) (B1) (B1) (B2)
                 (A1) (A1) (B1) (A2) (B1) (B2) (A1) (A2) (B2) (B1)
                 (A1) (A2) (B1) (A2) (A1) (B2) (B2) (A1) (B1) (A2)
                 (A1) (B2) (B1) (A1) (B2) (A1) (B1) (A2) (B2) (B2)
                 (B1) (A1) (B2) (A2) (A1) (A1) (B2) (B1) (A1) (B2)
                 (A1) (B2) (A2) (A1) (B2) (B1) (A2) (A1) (A2) (B1)
                 (B1) (A1) (B2) (A2) (A1) (B2) (B2) (A1) (B2) (B1)
                 (A2) (A1) (B2) (A1) (B2) (A1)
 The electronic state is 1-A1.
 Alpha  occ. eigenvalues --  -10.18110 -10.16573 -10.16572 -10.15297  -0.80969
 Alpha  occ. eigenvalues --   -0.69617  -0.68276  -0.52694  -0.45700  -0.44842
 Alpha  occ. eigenvalues --   -0.43623  -0.39017  -0.37458  -0.36994  -0.34289
 Alpha  occ. eigenvalues --   -0.25177
 Alpha virt. eigenvalues --    0.00712   0.01287   0.04854   0.05296   0.07096
 Alpha virt. eigenvalues --    0.07599   0.08239   0.11239   0.11524   0.13097
 Alpha virt. eigenvalues --    0.14577   0.16636   0.17398   0.17878   0.22062
 Alpha virt. eigenvalues --    0.25524   0.26413   0.26690   0.27400   0.28920
 Alpha virt. eigenvalues --    0.30111   0.32890   0.34179   0.34385   0.35519
 Alpha virt. eigenvalues --    0.36218   0.36666   0.37084   0.38418   0.41694
 Alpha virt. eigenvalues --    0.42855   0.46297   0.52508   0.56247   0.57338
 Alpha virt. eigenvalues --    0.62338   0.63594   0.66537   0.74093   0.78351
 Alpha virt. eigenvalues --    0.82177   0.90738   0.92752   0.92885   0.93541
 Alpha virt. eigenvalues --    0.93854   0.95443   0.97095   0.99250   1.00705
 Alpha virt. eigenvalues --    1.00974   1.02758   1.05121   1.07620   1.08159
 Alpha virt. eigenvalues --    1.09504   1.12594   1.13601   1.17423   1.18134
 Alpha virt. eigenvalues --    1.20894   1.24443   1.25302   1.26587   1.29548
 Alpha virt. eigenvalues --    1.34221   1.34308   1.36509   1.41322   1.43265
 Alpha virt. eigenvalues --    1.48096   1.49274   1.53219   1.56269   1.57415
 Alpha virt. eigenvalues --    1.58156   1.62205   1.66404   1.73689   1.75455
 Alpha virt. eigenvalues --    1.75829   1.75948   1.77377   1.82721   1.83627
 Alpha virt. eigenvalues --    1.90400   1.91860   1.93840   1.94702   2.00372
 Alpha virt. eigenvalues --    2.09011   2.12024   2.23571   2.26778   2.28498
 Alpha virt. eigenvalues --    2.39295   2.51999   2.53485   2.56707   2.64031
 Alpha virt. eigenvalues --    2.66928   2.74958   3.05958   3.07017   3.10664
 Alpha virt. eigenvalues --    3.15393   3.20024   3.22055   3.26328   3.28600
 Alpha virt. eigenvalues --    3.28847   3.32855   3.36494   3.38391   3.43691
 Alpha virt. eigenvalues --    3.48687   3.50061   3.50572   3.58061   3.59275
 Alpha virt. eigenvalues --    3.69459   3.69496   3.74401   3.74821   3.76871
 Alpha virt. eigenvalues --    3.79341   3.81829   3.84836   3.85803   3.87488
 Alpha virt. eigenvalues --    3.87877   3.93514   3.95284   4.00189   4.00672
 Alpha virt. eigenvalues --    4.06529   4.08316   4.11120   4.17348   4.21170
 Alpha virt. eigenvalues --    4.22460   4.24640   4.26747   4.26990   4.27127
 Alpha virt. eigenvalues --    4.31536   4.32954   4.32966   4.37939   4.39457
 Alpha virt. eigenvalues --    4.40148   4.44316   4.45212   4.46557   4.50271
 Alpha virt. eigenvalues --    4.50418   4.50662   4.51482   4.56326   4.60428
 Alpha virt. eigenvalues --    4.60636   4.61401   4.65235   4.65528   4.66304
 Alpha virt. eigenvalues --    4.70587   4.72870   4.74433   4.76908   4.79803
 Alpha virt. eigenvalues --    4.80583   4.82180   4.83089   4.86261   4.86404
 Alpha virt. eigenvalues --    4.90697   4.99376   5.03407   5.06248   5.12383
 Alpha virt. eigenvalues --    5.18246   5.23374   5.28422   5.33479   5.36623
 Alpha virt. eigenvalues --    5.37826   5.38682   5.38940   5.44107   5.53714
 Alpha virt. eigenvalues --    5.55859   5.64200   5.65372   5.67586   5.73975
 Alpha virt. eigenvalues --    5.76920   5.77089   5.79482   5.80187   5.81930
 Alpha virt. eigenvalues --    5.88173   5.89336   5.89592   5.92899   5.93326
 Alpha virt. eigenvalues --    5.96984   6.05520   6.05732   6.14319   6.14793
 Alpha virt. eigenvalues --    6.15176   6.15615   6.24358   6.25277   6.67757
 Alpha virt. eigenvalues --    6.87938
          Condensed to atoms (all electrons):
               1          2          3          4          5          6
     1  C    5.032036   0.624947  -0.045968  -0.045968   0.333204   0.333204
     2  C    0.624947   4.818362   0.438030   0.438030  -0.077548  -0.077548
     3  H   -0.045968   0.438030   0.606239  -0.031294  -0.010963   0.007833
     4  H   -0.045968   0.438030  -0.031294   0.606239   0.007833  -0.010963
     5  C    0.333204  -0.077548  -0.010963   0.007833   4.561153  -0.041108
     6  C    0.333204  -0.077548   0.007833  -0.010963  -0.041108   4.561153
     7  H   -0.039268  -0.010706   0.001501   0.000385   0.432642   0.008753
     8  H   -0.044243   0.000025   0.000223  -0.000458   0.424593  -0.005145
     9  H   -0.044243   0.000025   0.000223  -0.000458   0.424593  -0.005145
    10  H   -0.039268  -0.010706   0.000385   0.001501   0.008753   0.432642
    11  H   -0.044243   0.000025  -0.000458   0.000223  -0.005145   0.424593
    12  H   -0.044243   0.000025  -0.000458   0.000223  -0.005145   0.424593
               7          8          9         10         11         12
     1  C   -0.039268  -0.044243  -0.044243  -0.039268  -0.044243  -0.044243
     2  C   -0.010706   0.000025   0.000025  -0.010706   0.000025   0.000025
     3  H    0.001501   0.000223   0.000223   0.000385  -0.000458  -0.000458
     4  H    0.000385  -0.000458  -0.000458   0.001501   0.000223   0.000223
     5  C    0.432642   0.424593   0.424593   0.008753  -0.005145  -0.005145
     6  C    0.008753  -0.005145  -0.005145   0.432642   0.424593   0.424593
     7  H    0.626953  -0.023020  -0.023020  -0.000383  -0.000029  -0.000029
     8  H   -0.023020   0.661790  -0.042415  -0.000029  -0.003029   0.006015
     9  H   -0.023020  -0.042415   0.661790  -0.000029   0.006015  -0.003029
    10  H   -0.000383  -0.000029  -0.000029   0.626953  -0.023020  -0.023020
    11  H   -0.000029  -0.003029   0.006015  -0.023020   0.661790  -0.042415
    12  H   -0.000029   0.006015  -0.003029  -0.023020  -0.042415   0.661790
 Mulliken charges:
               1
     1  C    0.024052
     2  C   -0.142959
     3  H    0.034708
     4  H    0.034708
     5  C   -0.052863
     6  C   -0.052863
     7  H    0.026218
     8  H    0.025694
     9  H    0.025694
    10  H    0.026218
    11  H    0.025694
    12  H    0.025694
 Sum of Mulliken charges =  -0.00000
 Mulliken charges with hydrogens summed into heavy atoms:
               1
     1  C    0.024052
     2  C   -0.073542
     5  C    0.024745
     6  C    0.024745
 Electronic spatial extent (au):  <R**2>=            324.6397
 Charge=             -0.0000 electrons
 Dipole moment (field-independent basis, Debye):
    X=             -0.0000    Y=              0.0000    Z=             -0.5721  Tot=              0.5721
 Quadrupole moment (field-independent basis, Debye-Ang):
   XX=            -28.4708   YY=            -26.0543   ZZ=            -26.6740
   XY=             -0.0000   XZ=              0.0000   YZ=              0.0000
 Traceless Quadrupole moment (field-independent basis, Debye-Ang):
   XX=             -1.4044   YY=              1.0121   ZZ=              0.3923
   XY=             -0.0000   XZ=              0.0000   YZ=              0.0000
 Octapole moment (field-independent basis, Debye-Ang**2):
  XXX=              0.0000  YYY=             -0.0000  ZZZ=              0.4827  XYY=              0.0000
  XXY=              0.0000  XXZ=             -3.7640  XZZ=              0.0000  YZZ=             -0.0000
  YYZ=              2.1026  XYZ=              0.0000
 Hexadecapole moment (field-independent basis, Debye-Ang**3):
 XXXX=            -47.7571 YYYY=           -215.0824 ZZZZ=           -199.2436 XXXY=             -0.0000
 XXXZ=             -0.0000 YYYX=             -0.0000 YYYZ=              0.0000 ZZZX=             -0.0000
 ZZZY=              0.0000 XXYY=            -45.0847 XXZZ=            -42.1074 YYZZ=            -67.2157
 XXYZ=              0.0000 YYXZ=             -0.0000 ZZXY=             -0.0000
 N-N= 1.198827883124D+02 E-N=-6.036482463228D+02  KE= 1.565846478735D+02
 Symmetry A1   KE= 1.090278275099D+02
 Symmetry A2   KE= 2.058730666317D+00
 Symmetry B1   KE= 4.026756113061D+00
 Symmetry B2   KE= 4.147133358429D+01
 Calling FoFJK, ICntrl=      2127 FMM=F ISym2X=1 I1Cent= 0 IOpClX= 0 NMat=1 NMatS=1 NMatT=0.
 ***** Axes restored to original set *****
 -------------------------------------------------------------------
 Center     Atomic                   Forces (Hartrees/Bohr)
 Number     Number              X              Y              Z
 -------------------------------------------------------------------
      1        6          -0.000000000   -0.000000000    0.000005913
      2        6          -0.000000000    0.000000000    0.000102189
      3        1           0.000000000    0.000026358   -0.000048316
      4        1           0.000000000   -0.000026358   -0.000048316
      5        6          -0.000000000    0.000021490   -0.000020018
      6        6           0.000000000   -0.000021490   -0.000020018
      7        1           0.000000000    0.000003985    0.000016155
      8        1           0.000012631   -0.000008866   -0.000000936
      9        1          -0.000012631   -0.000008866   -0.000000936
     10        1           0.000000000   -0.000003985    0.000016155
     11        1          -0.000012631    0.000008866   -0.000000936
     12        1           0.000012631    0.000008866   -0.000000936
 -------------------------------------------------------------------
 Cartesian Forces:  Max     0.000102189 RMS     0.000023435

 GradGradGradGradGradGradGradGradGradGradGradGradGradGradGradGradGradGrad
 Berny optimization.
 FormGI is forming the generalized inverse of G from B-inverse, IUseBI=4.
 Internal  Forces:  Max     0.000074944 RMS     0.000015580
 Search for a local minimum.
 Step number   1 out of a maximum of   55
 All quantities printed in internal units (Hartrees-Bohrs-Radians)
 Mixed Optimization -- En-DIIS/RFO-DIIS
 Second derivative matrix not updated -- first step.
 ITU=  0
     Eigenvalues ---    0.00718   0.00718   0.01346   0.03006   0.03006
     Eigenvalues ---    0.07059   0.07059   0.07283   0.07283   0.16000
     Eigenvalues ---    0.16000   0.16000   0.16000   0.16000   0.16000
     Eigenvalues ---    0.16000   0.16000   0.25000   0.25000   0.32001
     Eigenvalues ---    0.32001   0.34407   0.34407   0.34407   0.34407
     Eigenvalues ---    0.34952   0.34952   0.35714   0.35714   0.59349
 RFO step:  Lambda=-6.50625475D-08 EMin= 7.18154736D-03
 Linear search not attempted -- first point.
 Iteration  1 RMS(Cart)=  0.00010650 RMS(Int)=  0.00000001
 Iteration  2 RMS(Cart)=  0.00000001 RMS(Int)=  0.00000000
 ClnCor:  largest displacement from symmetrization is 5.04D-12 for atom     2.
 Variable       Old X    -DE/DX   Delta X   Delta X   Delta X     New X
                                 (Linear)    (Quad)   (Total)
    R1        2.51459   0.00001   0.00000   0.00001   0.00001   2.51460
    R2        2.84142   0.00001   0.00000   0.00003   0.00003   2.84145
    R3        2.84142   0.00001   0.00000   0.00003   0.00003   2.84145
    R4        2.04532  -0.00000   0.00000  -0.00001  -0.00001   2.04531
    R5        2.04532  -0.00000   0.00000  -0.00001  -0.00001   2.04531
    R6        2.05753   0.00001   0.00000   0.00004   0.00004   2.05757
    R7        2.06648   0.00001   0.00000   0.00003   0.00003   2.06651
    R8        2.06648   0.00001   0.00000   0.00003   0.00003   2.06651
    R9        2.05753   0.00001   0.00000   0.00004   0.00004   2.05757
   R10        2.06648   0.00001   0.00000   0.00003   0.00003   2.06651
   R11        2.06648   0.00001   0.00000   0.00003   0.00003   2.06651
    A1        2.13257   0.00000   0.00000   0.00000   0.00000   2.13257
    A2        2.13257   0.00000   0.00000   0.00000   0.00000   2.13257
    A3        2.01804  -0.00000   0.00000  -0.00001  -0.00001   2.01804
    A4        2.12255  -0.00004   0.00000  -0.00023  -0.00023   2.12231
    A5        2.12255  -0.00004   0.00000  -0.00023  -0.00023   2.12231
    A6        2.03809   0.00007   0.00000   0.00047   0.00047   2.03856
    A7        1.95243  -0.00001   0.00000  -0.00007  -0.00007   1.95237
    A8        1.93446  -0.00001   0.00000  -0.00007  -0.00007   1.93439
    A9        1.93446  -0.00001   0.00000  -0.00007  -0.00007   1.93439
   A10        1.89014   0.00001   0.00000   0.00006   0.00006   1.89021
   A11        1.89014   0.00001   0.00000   0.00006   0.00006   1.89021
   A12        1.85894   0.00001   0.00000   0.00009   0.00009   1.85903
   A13        1.95243  -0.00001   0.00000  -0.00007  -0.00007   1.95237
   A14        1.93446  -0.00001   0.00000  -0.00007  -0.00007   1.93439
   A15        1.93446  -0.00001   0.00000  -0.00007  -0.00007   1.93439
   A16        1.89014   0.00001   0.00000   0.00006   0.00006   1.89021
   A17        1.89014   0.00001   0.00000   0.00006   0.00006   1.89021
   A18        1.85894   0.00001   0.00000   0.00009   0.00009   1.85903
    D1        0.00000   0.00000   0.00000   0.00000   0.00000   0.00000
    D2        3.14159   0.00000   0.00000  -0.00000   0.00000   3.14159
    D3        3.14159   0.00000   0.00000   0.00000   0.00000   3.14159
    D4        0.00000   0.00000   0.00000   0.00000   0.00000   0.00000
    D5        0.00000   0.00000   0.00000   0.00000  -0.00000   0.00000
    D6        2.11144  -0.00000   0.00000  -0.00001  -0.00001   2.11143
    D7       -2.11144   0.00000   0.00000   0.00001   0.00001  -2.11143
    D8        3.14159  -0.00000   0.00000   0.00000   0.00000   3.14159
    D9       -1.03015  -0.00000   0.00000  -0.00001  -0.00001  -1.03016
   D10        1.03015   0.00000   0.00000   0.00001   0.00001   1.03016
   D11        0.00000  -0.00000   0.00000   0.00000  -0.00000   0.00000
   D12        2.11144  -0.00000   0.00000  -0.00001  -0.00001   2.11143
   D13       -2.11144   0.00000   0.00000   0.00001   0.00001  -2.11143
   D14        3.14159  -0.00000   0.00000   0.00000   0.00000   3.14159
   D15       -1.03015  -0.00000   0.00000  -0.00001  -0.00001  -1.03016
   D16        1.03015   0.00000   0.00000   0.00001   0.00001   1.03016
         Item               Value     Threshold  Converged?
 Maximum Force            0.000075     0.000450     YES
 RMS     Force            0.000016     0.000300     YES
 Maximum Displacement     0.000359     0.001800     YES
 RMS     Displacement     0.000106     0.001200     YES
 Predicted change in Energy=-3.253127D-08
 Optimization completed.
    -- Stationary point found.
                           ----------------------------
                           !   Optimized Parameters   !
                           ! (Angstroms and Degrees)  !
 --------------------------                            --------------------------
 ! Name  Definition              Value          Derivative Info.                !
 --------------------------------------------------------------------------------
 ! R1    R(1,2)                  1.3307         -DE/DX =    0.0                 !
 ! R2    R(1,5)                  1.5036         -DE/DX =    0.0                 !
 ! R3    R(1,6)                  1.5036         -DE/DX =    0.0                 !
 ! R4    R(2,3)                  1.0823         -DE/DX =    0.0                 !
 ! R5    R(2,4)                  1.0823         -DE/DX =    0.0                 !
 ! R6    R(5,7)                  1.0888         -DE/DX =    0.0                 !
 ! R7    R(5,8)                  1.0935         -DE/DX =    0.0                 !
 ! R8    R(5,9)                  1.0935         -DE/DX =    0.0                 !
 ! R9    R(6,10)                 1.0888         -DE/DX =    0.0                 !
 ! R10   R(6,11)                 1.0935         -DE/DX =    0.0                 !
 ! R11   R(6,12)                 1.0935         -DE/DX =    0.0                 !
 ! A1    A(2,1,5)              122.1873         -DE/DX =    0.0                 !
 ! A2    A(2,1,6)              122.1873         -DE/DX =    0.0                 !
 ! A3    A(5,1,6)              115.6255         -DE/DX =    0.0                 !
 ! A4    A(1,2,3)              121.6131         -DE/DX =    0.0                 !
 ! A5    A(1,2,4)              121.6131         -DE/DX =    0.0                 !
 ! A6    A(3,2,4)              116.7738         -DE/DX =    0.0001              !
 ! A7    A(1,5,7)              111.8662         -DE/DX =    0.0                 !
 ! A8    A(1,5,8)              110.8363         -DE/DX =    0.0                 !
 ! A9    A(1,5,9)              110.8363         -DE/DX =    0.0                 !
 ! A10   A(7,5,8)              108.2972         -DE/DX =    0.0                 !
 ! A11   A(7,5,9)              108.2972         -DE/DX =    0.0                 !
 ! A12   A(8,5,9)              106.5096         -DE/DX =    0.0                 !
 ! A13   A(1,6,10)             111.8662         -DE/DX =    0.0                 !
 ! A14   A(1,6,11)             110.8363         -DE/DX =    0.0                 !
 ! A15   A(1,6,12)             110.8363         -DE/DX =    0.0                 !
 ! A16   A(10,6,11)            108.2972         -DE/DX =    0.0                 !
 ! A17   A(10,6,12)            108.2972         -DE/DX =    0.0                 !
 ! A18   A(11,6,12)            106.5096         -DE/DX =    0.0                 !
 ! D1    D(5,1,2,3)              0.0            -DE/DX =    0.0                 !
 ! D2    D(5,1,2,4)            180.0            -DE/DX =    0.0                 !
 ! D3    D(6,1,2,3)            180.0            -DE/DX =    0.0                 !
 ! D4    D(6,1,2,4)              0.0            -DE/DX =    0.0                 !
 ! D5    D(2,1,5,7)              0.0            -DE/DX =    0.0                 !
 ! D6    D(2,1,5,8)            120.9768         -DE/DX =    0.0                 !
 ! D7    D(2,1,5,9)           -120.9768         -DE/DX =    0.0                 !
 ! D8    D(6,1,5,7)            180.0            -DE/DX =    0.0                 !
 ! D9    D(6,1,5,8)            -59.0232         -DE/DX =    0.0                 !
 ! D10   D(6,1,5,9)             59.0232         -DE/DX =    0.0                 !
 ! D11   D(2,1,6,10)             0.0            -DE/DX =    0.0                 !
 ! D12   D(2,1,6,11)           120.9768         -DE/DX =    0.0                 !
 ! D13   D(2,1,6,12)          -120.9768         -DE/DX =    0.0                 !
 ! D14   D(5,1,6,10)           180.0            -DE/DX =    0.0                 !
 ! D15   D(5,1,6,11)           -59.0232         -DE/DX =    0.0                 !
 ! D16   D(5,1,6,12)            59.0232         -DE/DX =    0.0                 !
 --------------------------------------------------------------------------------
 GradGradGradGradGradGradGradGradGradGradGradGradGradGradGradGradGradGrad

                          Input orientation:                          
 ---------------------------------------------------------------------
 Center     Atomic      Atomic             Coordinates (Angstroms)
 Number     Number       Type             X           Y           Z
 ---------------------------------------------------------------------
      1          6           0        0.000000    0.000000    0.124014
      2          6           0        0.000000    0.000000    1.454677
      3          1           0        0.000000    0.921724    2.022016
      4          1           0       -0.000000   -0.921724    2.022016
      5          6           0        0.000000    1.272525   -0.676943
      6          6           0       -0.000000   -1.272525   -0.676943
      7          1           0        0.000000    2.153978   -0.037787
      8          1           0        0.876253    1.321507   -1.329322
      9          1           0       -0.876253    1.321507   -1.329322
     10          1           0       -0.000000   -2.153978   -0.037787
     11          1           0       -0.876253   -1.321507   -1.329322
     12          1           0        0.876253   -1.321507   -1.329322
 ---------------------------------------------------------------------
                    Distance matrix (angstroms):
                    1          2          3          4          5
     1  C    0.000000
     2  C    1.330663   0.000000
     3  H    2.109973   1.082335   0.000000
     4  H    2.109973   1.082335   1.843448   0.000000
     5  C    1.503613   2.482564   2.721661   3.478377   0.000000
     6  C    1.503613   2.482564   3.478377   2.721661   2.545050
     7  H    2.160046   2.620509   2.400258   3.701720   1.088797
     8  H    2.150903   3.203881   3.486992   4.126908   1.093534
     9  H    2.150903   3.203881   3.486992   4.126908   1.093534
    10  H    2.160046   2.620509   3.701720   2.400258   3.485605
    11  H    2.150903   3.203881   4.126908   3.486992   2.814679
    12  H    2.150903   3.203881   4.126908   3.486992   2.814679
                    6          7          8          9         10
     6  C    0.000000
     7  H    3.485605   0.000000
     8  H    2.814679   1.768867   0.000000
     9  H    2.814679   1.768867   1.752506   0.000000
    10  H    1.088797   4.307956   3.809840   3.809840   0.000000
    11  H    1.093534   3.809840   3.171246   2.643014   1.768867
    12  H    1.093534   3.809840   2.643014   3.171246   1.768867
                   11         12
    11  H    0.000000
    12  H    1.752506   0.000000
 Stoichiometry    C4H8
 Framework group  C2V[C2(CC),SGV(C2H4),X(H4)]
 Deg. of freedom    10
 Full point group                 C2V     NOp   4
 Largest Abelian subgroup         C2V     NOp   4
 Largest concise Abelian subgroup C2V     NOp   4
                         Standard orientation:                         
 ---------------------------------------------------------------------
 Center     Atomic      Atomic             Coordinates (Angstroms)
 Number     Number       Type             X           Y           Z
 ---------------------------------------------------------------------
      1          6           0        0.000000    0.000000    0.124014
      2          6           0        0.000000    0.000000    1.454677
      3          1           0        0.000000    0.921724    2.022016
      4          1           0       -0.000000   -0.921724    2.022016
      5          6           0        0.000000    1.272525   -0.676943
      6          6           0       -0.000000   -1.272525   -0.676943
      7          1           0        0.000000    2.153978   -0.037787
      8          1           0        0.876253    1.321507   -1.329322
      9          1           0       -0.876253    1.321507   -1.329322
     10          1           0       -0.000000   -2.153978   -0.037787
     11          1           0       -0.876253   -1.321507   -1.329322
     12          1           0        0.876253   -1.321507   -1.329322
 ---------------------------------------------------------------------
 Rotational constants (GHZ):           9.1875995           8.4140826           4.6416363
 1\1\GINC-GAMBA\FOpt\RB3LYP\Gen\C4H8\IRIKURA\29-Sep-2023\0\\# b3lyp/gen
  opt freq CPHF(Grid=OneStep)\\isobutene, B3LYP/pcseg-2\\0,1\C,0.,0.,0.
 124014\C,0.,0.,1.454677\H,0.,0.921724,2.022016\H,0.,-0.921724,2.022016
 \C,0.,1.272525,-0.676943\C,0.,-1.272525,-0.676943\H,0.,2.153978,-0.037
 787\H,0.876253,1.321507,-1.329322\H,-0.876253,1.321507,-1.329322\H,0.,
 -2.153978,-0.037787\H,-0.876253,-1.321507,-1.329322\H,0.876253,-1.3215
 07,-1.329322\\Version=ES64L-G16RevB.01\State=1-A1\HF=-157.2947101\RMSD
 =2.398e-09\RMSF=2.343e-05\Dipole=0.,0.,-0.22507\Quadrupole=-1.0441694,
 0.7524682,0.2917012,0.,0.,0.\PG=C02V [C2(C1C1),SGV(C2H4),X(H4)]\\@


 WISDOM IS KNOWING WHAT TO DO,
 SKILL IS KNOWING HOW TO DO IT,
 AND VIRTUE IS NOT DOING IT.
 Job cpu time:       0 days  0 hours  1 minutes 21.2 seconds.
 Elapsed time:       0 days  0 hours  0 minutes 20.7 seconds.
 File lengths (MBytes):  RWF=     27 Int=      0 D2E=      0 Chk=      5 Scr=      1
 Normal termination of Gaussian 16 at Fri Sep 29 14:43:39 2023.
 Link1:  Proceeding to internal job step number  2.
 ------------------------------------------------------------------
 #N Geom=AllCheck Guess=TCheck SCRF=Check GenChk RB3LYP/ChkBas Freq
 ------------------------------------------------------------------
 1/10=4,29=7,30=1,38=1,40=1/1,3;
 2/12=2,40=1/2;
 3/5=7,6=2,11=2,14=-4,25=1,30=1,67=1,70=2,71=2,74=-5,82=7,116=1,140=1/1,2,3;
 4/5=101/1;
 5/5=2,38=6,98=1/2;
 8/6=4,10=90,11=11/1;
 11/6=1,8=1,9=11,15=111,16=1/1,2,10;
 10/6=1,60=-420/2;
 6/7=2,8=2,9=2,10=2,28=1/1;
 7/8=1,10=1,25=1/1,2,3,16;
 1/10=4,30=1/3;
 99//99;
 Structure from the checkpoint file:  "isobutene.chk"
 ------------------------
 isobutene, B3LYP/pcseg-2
 ------------------------
 Charge =  0 Multiplicity = 1
 Redundant internal coordinates found in file.  (old form).
 C,0,0.,0.,0.124014
 C,0,0.,0.,1.454677
 H,0,0.,0.921724,2.022016
 H,0,0.,-0.921724,2.022016
 C,0,0.,1.272525,-0.676943
 C,0,0.,-1.272525,-0.676943
 H,0,0.,2.153978,-0.037787
 H,0,0.876253,1.321507,-1.329322
 H,0,-0.876253,1.321507,-1.329322
 H,0,0.,-2.153978,-0.037787
 H,0,-0.876253,-1.321507,-1.329322
 H,0,0.876253,-1.321507,-1.329322
 Recover connectivity data from disk.

 GradGradGradGradGradGradGradGradGradGradGradGradGradGradGradGradGradGrad
 Berny optimization.
 Initialization pass.
                           ----------------------------
                           !    Initial Parameters    !
                           ! (Angstroms and Degrees)  !
 --------------------------                            --------------------------
 ! Name  Definition              Value          Derivative Info.                !
 --------------------------------------------------------------------------------
 ! R1    R(1,2)                  1.3307         calculate D2E/DX2 analytically  !
 ! R2    R(1,5)                  1.5036         calculate D2E/DX2 analytically  !
 ! R3    R(1,6)                  1.5036         calculate D2E/DX2 analytically  !
 ! R4    R(2,3)                  1.0823         calculate D2E/DX2 analytically  !
 ! R5    R(2,4)                  1.0823         calculate D2E/DX2 analytically  !
 ! R6    R(5,7)                  1.0888         calculate D2E/DX2 analytically  !
 ! R7    R(5,8)                  1.0935         calculate D2E/DX2 analytically  !
 ! R8    R(5,9)                  1.0935         calculate D2E/DX2 analytically  !
 ! R9    R(6,10)                 1.0888         calculate D2E/DX2 analytically  !
 ! R10   R(6,11)                 1.0935         calculate D2E/DX2 analytically  !
 ! R11   R(6,12)                 1.0935         calculate D2E/DX2 analytically  !
 ! A1    A(2,1,5)              122.1873         calculate D2E/DX2 analytically  !
 ! A2    A(2,1,6)              122.1873         calculate D2E/DX2 analytically  !
 ! A3    A(5,1,6)              115.6255         calculate D2E/DX2 analytically  !
 ! A4    A(1,2,3)              121.6131         calculate D2E/DX2 analytically  !
 ! A5    A(1,2,4)              121.6131         calculate D2E/DX2 analytically  !
 ! A6    A(3,2,4)              116.7738         calculate D2E/DX2 analytically  !
 ! A7    A(1,5,7)              111.8662         calculate D2E/DX2 analytically  !
 ! A8    A(1,5,8)              110.8363         calculate D2E/DX2 analytically  !
 ! A9    A(1,5,9)              110.8363         calculate D2E/DX2 analytically  !
 ! A10   A(7,5,8)              108.2972         calculate D2E/DX2 analytically  !
 ! A11   A(7,5,9)              108.2972         calculate D2E/DX2 analytically  !
 ! A12   A(8,5,9)              106.5096         calculate D2E/DX2 analytically  !
 ! A13   A(1,6,10)             111.8662         calculate D2E/DX2 analytically  !
 ! A14   A(1,6,11)             110.8363         calculate D2E/DX2 analytically  !
 ! A15   A(1,6,12)             110.8363         calculate D2E/DX2 analytically  !
 ! A16   A(10,6,11)            108.2972         calculate D2E/DX2 analytically  !
 ! A17   A(10,6,12)            108.2972         calculate D2E/DX2 analytically  !
 ! A18   A(11,6,12)            106.5096         calculate D2E/DX2 analytically  !
 ! D1    D(5,1,2,3)              0.0            calculate D2E/DX2 analytically  !
 ! D2    D(5,1,2,4)            180.0            calculate D2E/DX2 analytically  !
 ! D3    D(6,1,2,3)            180.0            calculate D2E/DX2 analytically  !
 ! D4    D(6,1,2,4)              0.0            calculate D2E/DX2 analytically  !
 ! D5    D(2,1,5,7)              0.0            calculate D2E/DX2 analytically  !
 ! D6    D(2,1,5,8)            120.9768         calculate D2E/DX2 analytically  !
 ! D7    D(2,1,5,9)           -120.9768         calculate D2E/DX2 analytically  !
 ! D8    D(6,1,5,7)            180.0            calculate D2E/DX2 analytically  !
 ! D9    D(6,1,5,8)            -59.0232         calculate D2E/DX2 analytically  !
 ! D10   D(6,1,5,9)             59.0232         calculate D2E/DX2 analytically  !
 ! D11   D(2,1,6,10)             0.0            calculate D2E/DX2 analytically  !
 ! D12   D(2,1,6,11)           120.9768         calculate D2E/DX2 analytically  !
 ! D13   D(2,1,6,12)          -120.9768         calculate D2E/DX2 analytically  !
 ! D14   D(5,1,6,10)           180.0            calculate D2E/DX2 analytically  !
 ! D15   D(5,1,6,11)           -59.0232         calculate D2E/DX2 analytically  !
 ! D16   D(5,1,6,12)            59.0232         calculate D2E/DX2 analytically  !
 --------------------------------------------------------------------------------
 Trust Radius=3.00D-01 FncErr=1.00D-07 GrdErr=1.00D-07 EigMax=2.50D+02 EigMin=1.00D-04
 Number of steps in this run=      2 maximum allowed number of steps=      2.
 GradGradGradGradGradGradGradGradGradGradGradGradGradGradGradGradGradGrad

                          Input orientation:                          
 ---------------------------------------------------------------------
 Center     Atomic      Atomic             Coordinates (Angstroms)
 Number     Number       Type             X           Y           Z
 ---------------------------------------------------------------------
      1          6           0       -0.000000   -0.000000    0.124014
      2          6           0        0.000000   -0.000000    1.454677
      3          1           0        0.000000    0.921724    2.022016
      4          1           0       -0.000000   -0.921724    2.022016
      5          6           0        0.000000    1.272525   -0.676943
      6          6           0       -0.000000   -1.272525   -0.676943
      7          1           0        0.000000    2.153978   -0.037787
      8          1           0        0.876253    1.321507   -1.329322
      9          1           0       -0.876253    1.321507   -1.329322
     10          1           0       -0.000000   -2.153978   -0.037787
     11          1           0       -0.876253   -1.321507   -1.329322
     12          1           0        0.876253   -1.321507   -1.329322
 ---------------------------------------------------------------------
                    Distance matrix (angstroms):
                    1          2          3          4          5
     1  C    0.000000
     2  C    1.330663   0.000000
     3  H    2.109973   1.082335   0.000000
     4  H    2.109973   1.082335   1.843448   0.000000
     5  C    1.503613   2.482564   2.721661   3.478377   0.000000
     6  C    1.503613   2.482564   3.478377   2.721661   2.545050
     7  H    2.160046   2.620509   2.400258   3.701720   1.088797
     8  H    2.150903   3.203881   3.486992   4.126908   1.093534
     9  H    2.150903   3.203881   3.486992   4.126908   1.093534
    10  H    2.160046   2.620509   3.701720   2.400258   3.485605
    11  H    2.150903   3.203881   4.126908   3.486992   2.814679
    12  H    2.150903   3.203881   4.126908   3.486992   2.814679
                    6          7          8          9         10
     6  C    0.000000
     7  H    3.485605   0.000000
     8  H    2.814679   1.768867   0.000000
     9  H    2.814679   1.768867   1.752506   0.000000
    10  H    1.088797   4.307956   3.809840   3.809840   0.000000
    11  H    1.093534   3.809840   3.171246   2.643014   1.768867
    12  H    1.093534   3.809840   2.643014   3.171246   1.768867
                   11         12
    11  H    0.000000
    12  H    1.752506   0.000000
 Stoichiometry    C4H8
 Framework group  C2V[C2(CC),SGV(C2H4),X(H4)]
 Deg. of freedom    10
 Full point group                 C2V     NOp   4
 Largest Abelian subgroup         C2V     NOp   4
 Largest concise Abelian subgroup C2V     NOp   4
                         Standard orientation:                         
 ---------------------------------------------------------------------
 Center     Atomic      Atomic             Coordinates (Angstroms)
 Number     Number       Type             X           Y           Z
 ---------------------------------------------------------------------
      1          6           0        0.000000    0.000000    0.124014
      2          6           0        0.000000    0.000000    1.454677
      3          1           0        0.000000    0.921724    2.022016
      4          1           0       -0.000000   -0.921724    2.022016
      5          6           0       -0.000000    1.272525   -0.676943
      6          6           0       -0.000000   -1.272525   -0.676943
      7          1           0       -0.000000    2.153978   -0.037787
      8          1           0        0.876253    1.321507   -1.329322
      9          1           0       -0.876253    1.321507   -1.329322
     10          1           0       -0.000000   -2.153978   -0.037787
     11          1           0       -0.876253   -1.321507   -1.329322
     12          1           0        0.876253   -1.321507   -1.329322
 ---------------------------------------------------------------------
 Rotational constants (GHZ):           9.1875995           8.4140826           4.6416363
 Basis read from chk: "isobutene.chk" (5D, 7F)
 There are    93 symmetry adapted cartesian basis functions of A1  symmetry.
 There are    40 symmetry adapted cartesian basis functions of A2  symmetry.
 There are    50 symmetry adapted cartesian basis functions of B1  symmetry.
 There are    77 symmetry adapted cartesian basis functions of B2  symmetry.
 There are    80 symmetry adapted basis functions of A1  symmetry.
 There are    38 symmetry adapted basis functions of A2  symmetry.
 There are    46 symmetry adapted basis functions of B1  symmetry.
 There are    68 symmetry adapted basis functions of B2  symmetry.
   232 basis functions,   348 primitive gaussians,   260 cartesian basis functions
    16 alpha electrons       16 beta electrons
       nuclear repulsion energy       119.8827883124 Hartrees.
 NAtoms=   12 NActive=   12 NUniq=    6 SFac= 4.00D+00 NAtFMM=   60 NAOKFM=F Big=F
 Integral buffers will be    131072 words long.
 Raffenetti 2 integral format.
 Two-electron integral symmetry is turned on.
 One-electron integrals computed using PRISM.
 NBasis=   232 RedAO= T EigKep=  1.48D-04  NBF=    80    38    46    68
 NBsUse=   232 1.00D-06 EigRej= -1.00D+00 NBFU=    80    38    46    68
 Initial guess from the checkpoint file:  "isobutene.chk"
 B after Tr=     0.000000   -0.000000    0.000000
         Rot=    1.000000    0.000000    0.000000    0.000000 Ang=   0.00 deg.
 Initial guess orbital symmetries:
       Occupied  (A1) (B2) (A1) (A1) (A1) (B2) (A1) (A1) (B2) (A1)
                 (B1) (A2) (B2) (A1) (B2) (B1)
       Virtual   (B1) (A1) (B2) (A1) (B2) (B1) (A1) (A2) (A1) (B2)
                 (A1) (B1) (B2) (A2) (A1) (A1) (B1) (B2) (B2) (A1)
                 (B1) (A1) (B2) (A1) (B1) (A2) (A1) (B2) (B2) (A1)
                 (B2) (A1) (A1) (A1) (B2) (B2) (B1) (A2) (A2) (A1)
                 (B2) (A1) (B1) (A2) (B2) (B1) (A1) (B2) (A2) (B2)
                 (B1) (A1) (A2) (B2) (B1) (A1) (A2) (A1) (A1) (B1)
                 (B2) (A1) (B2) (B1) (A1) (A1) (B1) (B2) (B1) (A2)
                 (A1) (B2) (A2) (A1) (B1) (B2) (A1) (B2) (B1) (B2)
                 (A1) (A2) (B2) (A1) (A1) (B2) (A2) (B1) (A1) (B2)
                 (A1) (B2) (A1) (A1) (B2) (A1) (B2) (A2) (B1) (A1)
                 (B2) (A1) (A2) (B2) (B1) (B1) (A1) (B2) (B2) (B1)
                 (A2) (A2) (B1) (A1) (B2) (B1) (A2) (A1) (A1) (B2)
                 (B2) (A1) (A2) (B1) (B2) (A1) (A2) (B1) (A2) (A1)
                 (B1) (A1) (B2) (A2) (B2) (A1) (A2) (B1) (A2) (B1)
                 (A1) (B2) (A1) (B2) (A2) (A1) (B2) (B1) (B1) (B2)
                 (A1) (A1) (B1) (A2) (B1) (B2) (A1) (A2) (B2) (B1)
                 (A1) (A2) (B1) (A2) (A1) (B2) (B2) (A1) (B1) (A2)
                 (A1) (B2) (B1) (A1) (B2) (A1) (B1) (A2) (B2) (B2)
                 (B1) (A1) (B2) (A2) (A1) (A1) (B2) (B1) (A1) (B2)
                 (A1) (B2) (A2) (A1) (B2) (B1) (A2) (A1) (A2) (B1)
                 (B1) (A1) (B2) (A2) (A1) (B2) (B2) (A1) (B2) (B1)
                 (A2) (A1) (B2) (A1) (B2) (A1)
 Keep R1 ints in memory in symmetry-blocked form, NReq=457259519.
 Requested convergence on RMS density matrix=1.00D-08 within 128 cycles.
 Requested convergence on MAX density matrix=1.00D-06.
 Requested convergence on             energy=1.00D-06.
 No special actions if energy rises.
 SCF Done:  E(RB3LYP) =  -157.294710140     A.U. after    1 cycles
            NFock=  1  Conv=0.11D-08     -V/T= 2.0045
 DoSCS=F DFT=T ScalE2(SS,OS)=  1.000000  1.000000
 Range of M.O.s used for correlation:     1   232
 NBasis=   232 NAE=    16 NBE=    16 NFC=     0 NFV=     0
 NROrb=    232 NOA=    16 NOB=    16 NVA=   216 NVB=   216

 **** Warning!!: The largest alpha MO coefficient is  0.25484494D+02

 Symmetrizing basis deriv contribution to polar:
 IMax=3 JMax=2 DiffMx= 0.00D+00
 G2DrvN: will do    13 centers at a time, making    1 passes.
 Calling FoFCou, ICntrl=  3107 FMM=F I1Cent=   0 AccDes= 0.00D+00.
 End of G2Drv F.D. properties file   721 does not exist.
 End of G2Drv F.D. properties file   722 does not exist.
 End of G2Drv F.D. properties file   788 does not exist.
          IDoAtm=111111111111
          Differentiating once with respect to electric field.
                with respect to dipole field.
          Differentiating once with respect to nuclear coordinates.
 Keep R1 ints in memory in symmetry-blocked form, NReq=457266853.
          There are    21 degrees of freedom in the 1st order CPHF.  IDoFFX=4 NUNeed=    21.
     21 vectors produced by pass  0 Test12= 1.65D-14 4.76D-09 XBig12= 6.19D+01 6.20D+00.
 AX will form    21 AO Fock derivatives at one time.
     21 vectors produced by pass  1 Test12= 1.65D-14 4.76D-09 XBig12= 1.26D+01 1.06D+00.
     21 vectors produced by pass  2 Test12= 1.65D-14 4.76D-09 XBig12= 2.07D-01 1.37D-01.
     21 vectors produced by pass  3 Test12= 1.65D-14 4.76D-09 XBig12= 9.58D-04 6.02D-03.
     21 vectors produced by pass  4 Test12= 1.65D-14 4.76D-09 XBig12= 2.22D-06 4.51D-04.
     20 vectors produced by pass  5 Test12= 1.65D-14 4.76D-09 XBig12= 4.11D-09 1.54D-05.
      6 vectors produced by pass  6 Test12= 1.65D-14 4.76D-09 XBig12= 4.70D-12 3.80D-07.
      2 vectors produced by pass  7 Test12= 1.65D-14 4.76D-09 XBig12= 4.98D-15 1.49D-08.
 InvSVY:  IOpt=1 It=  1 EMax= 5.33D-15
 Solved reduced A of dimension   133 with    21 vectors.
 Isotropic polarizability for W=    0.000000       51.12 Bohr**3.
 End of Minotr F.D. properties file   721 does not exist.
 End of Minotr F.D. properties file   722 does not exist.
 End of Minotr F.D. properties file   788 does not exist.

 **********************************************************************

            Population analysis using the SCF Density.

 **********************************************************************

 Orbital symmetries:
       Occupied  (A1) (B2) (A1) (A1) (A1) (B2) (A1) (A1) (B2) (A1)
                 (B1) (A2) (B2) (A1) (B2) (B1)
       Virtual   (B1) (A1) (B2) (A1) (B2) (B1) (A1) (A2) (A1) (B2)
                 (A1) (B1) (B2) (A2) (A1) (A1) (B1) (B2) (B2) (A1)
                 (B1) (A1) (B2) (A1) (B1) (A2) (A1) (B2) (B2) (A1)
                 (B2) (A1) (A1) (A1) (B2) (B2) (B1) (A2) (A2) (A1)
                 (B2) (A1) (B1) (A2) (B2) (B1) (A1) (B2) (A2) (B2)
                 (B1) (A1) (A2) (B2) (B1) (A1) (A2) (A1) (A1) (B1)
                 (B2) (A1) (B2) (B1) (A1) (A1) (B1) (B2) (B1) (A2)
                 (A1) (B2) (A2) (A1) (B1) (B2) (A1) (B2) (B1) (B2)
                 (A1) (A2) (B2) (A1) (A1) (B2) (A2) (B1) (A1) (B2)
                 (A1) (B2) (A1) (A1) (B2) (A1) (B2) (A2) (B1) (A1)
                 (B2) (A1) (A2) (B2) (B1) (B1) (A1) (B2) (B2) (B1)
                 (A2) (A2) (B1) (A1) (B2) (B1) (A2) (A1) (A1) (B2)
                 (B2) (A1) (A2) (B1) (B2) (A1) (A2) (B1) (A2) (A1)
                 (B1) (A1) (B2) (A2) (B2) (A1) (A2) (B1) (A2) (B1)
                 (A1) (B2) (A1) (B2) (A2) (A1) (B2) (B1) (B1) (B2)
                 (A1) (A1) (B1) (A2) (B1) (B2) (A1) (A2) (B2) (B1)
                 (A1) (A2) (B1) (A2) (A1) (B2) (B2) (A1) (B1) (A2)
                 (A1) (B2) (B1) (A1) (B2) (A1) (B1) (A2) (B2) (B2)
                 (B1) (A1) (B2) (A2) (A1) (A1) (B2) (B1) (A1) (B2)
                 (A1) (B2) (A2) (A1) (B2) (B1) (A2) (A1) (A2) (B1)
                 (B1) (A1) (B2) (A2) (A1) (B2) (B2) (A1) (B2) (B1)
                 (A2) (A1) (B2) (A1) (B2) (A1)
 The electronic state is 1-A1.
 Alpha  occ. eigenvalues --  -10.18110 -10.16573 -10.16572 -10.15297  -0.80969
 Alpha  occ. eigenvalues --   -0.69617  -0.68276  -0.52694  -0.45700  -0.44842
 Alpha  occ. eigenvalues --   -0.43623  -0.39017  -0.37458  -0.36994  -0.34289
 Alpha  occ. eigenvalues --   -0.25177
 Alpha virt. eigenvalues --    0.00712   0.01287   0.04854   0.05296   0.07096
 Alpha virt. eigenvalues --    0.07599   0.08239   0.11239   0.11524   0.13097
 Alpha virt. eigenvalues --    0.14577   0.16636   0.17398   0.17878   0.22062
 Alpha virt. eigenvalues --    0.25524   0.26413   0.26690   0.27400   0.28920
 Alpha virt. eigenvalues --    0.30111   0.32890   0.34179   0.34385   0.35519
 Alpha virt. eigenvalues --    0.36218   0.36666   0.37084   0.38418   0.41694
 Alpha virt. eigenvalues --    0.42855   0.46297   0.52508   0.56247   0.57338
 Alpha virt. eigenvalues --    0.62338   0.63594   0.66537   0.74093   0.78351
 Alpha virt. eigenvalues --    0.82177   0.90738   0.92752   0.92885   0.93541
 Alpha virt. eigenvalues --    0.93854   0.95443   0.97095   0.99250   1.00705
 Alpha virt. eigenvalues --    1.00974   1.02758   1.05121   1.07620   1.08159
 Alpha virt. eigenvalues --    1.09504   1.12594   1.13601   1.17423   1.18134
 Alpha virt. eigenvalues --    1.20894   1.24443   1.25302   1.26587   1.29548
 Alpha virt. eigenvalues --    1.34221   1.34308   1.36509   1.41322   1.43265
 Alpha virt. eigenvalues --    1.48096   1.49274   1.53219   1.56269   1.57415
 Alpha virt. eigenvalues --    1.58156   1.62205   1.66404   1.73689   1.75455
 Alpha virt. eigenvalues --    1.75829   1.75948   1.77377   1.82721   1.83627
 Alpha virt. eigenvalues --    1.90400   1.91860   1.93840   1.94702   2.00372
 Alpha virt. eigenvalues --    2.09011   2.12024   2.23571   2.26778   2.28498
 Alpha virt. eigenvalues --    2.39295   2.51999   2.53485   2.56707   2.64031
 Alpha virt. eigenvalues --    2.66928   2.74958   3.05958   3.07017   3.10664
 Alpha virt. eigenvalues --    3.15393   3.20024   3.22055   3.26328   3.28600
 Alpha virt. eigenvalues --    3.28847   3.32855   3.36494   3.38391   3.43691
 Alpha virt. eigenvalues --    3.48687   3.50061   3.50572   3.58061   3.59275
 Alpha virt. eigenvalues --    3.69459   3.69496   3.74401   3.74821   3.76871
 Alpha virt. eigenvalues --    3.79341   3.81829   3.84836   3.85803   3.87488
 Alpha virt. eigenvalues --    3.87877   3.93514   3.95284   4.00189   4.00672
 Alpha virt. eigenvalues --    4.06529   4.08316   4.11120   4.17348   4.21170
 Alpha virt. eigenvalues --    4.22460   4.24640   4.26747   4.26990   4.27127
 Alpha virt. eigenvalues --    4.31536   4.32954   4.32966   4.37939   4.39457
 Alpha virt. eigenvalues --    4.40148   4.44316   4.45212   4.46557   4.50271
 Alpha virt. eigenvalues --    4.50418   4.50662   4.51482   4.56325   4.60428
 Alpha virt. eigenvalues --    4.60636   4.61401   4.65235   4.65528   4.66304
[...]
                 (A1) (A2) (B2) (B1) (A1) (A1) (A1) (B1) (B2) (A2)
                 (B2) (B2) (A1) (A1) (B2) (A1) (B2) (B1) (A2) (A1)
                 (A1) (B2) (A1) (B2) (B1) (B1) (B2) (A1) (B1) (A2)
                 (A1) (B2) (B2) (A1) (B2) (A1) (A1) (B2) (A1) (A1)
 The electronic state is 1-A1.
 Alpha  occ. eigenvalues --  -11.23700 -11.21798 -11.21795 -11.20647  -1.08957
 Alpha  occ. eigenvalues --   -0.94173  -0.92711  -0.71903  -0.61980  -0.61072
 Alpha  occ. eigenvalues --   -0.59034  -0.53710  -0.52167  -0.51624  -0.47925
 Alpha  occ. eigenvalues --   -0.34761
 Alpha virt. eigenvalues --    0.05098   0.05339   0.05524   0.06647   0.08065
 Alpha virt. eigenvalues --    0.08668   0.09493   0.09736   0.10108   0.11818
 Alpha virt. eigenvalues --    0.14348   0.14485   0.14955   0.17865   0.18122
 Alpha virt. eigenvalues --    0.18499   0.20133   0.23377   0.23622   0.23772
 Alpha virt. eigenvalues --    0.23993   0.25603   0.27950   0.28240   0.31048
 Alpha virt. eigenvalues --    0.31538   0.35951   0.35976   0.36839   0.37165
 Alpha virt. eigenvalues --    0.39565   0.43195   0.44705   0.45434   0.45973
 Alpha virt. eigenvalues --    0.46356   0.46696   0.47340   0.49744   0.52080
 Alpha virt. eigenvalues --    0.52922   0.53094   0.54339   0.54903   0.55862
 Alpha virt. eigenvalues --    0.55973   0.56308   0.59076   0.59893   0.62218
 Alpha virt. eigenvalues --    0.62231   0.62689   0.64868   0.68226   0.71143
 Alpha virt. eigenvalues --    0.71190   0.71952   0.72807   0.74245   0.76092
 Alpha virt. eigenvalues --    0.76433   0.79593   0.80876   0.81739   0.84406
 Alpha virt. eigenvalues --    0.84798   0.89516   0.89668   0.92958   0.94063
 Alpha virt. eigenvalues --    0.94863   0.96496   0.97598   0.99351   0.99784
 Alpha virt. eigenvalues --    1.00319   1.02768   1.03577   1.04317   1.04861
 Alpha virt. eigenvalues --    1.06413   1.07073   1.07390   1.09400   1.09870
 Alpha virt. eigenvalues --    1.11965   1.17421   1.20215   1.20795   1.25045
 Alpha virt. eigenvalues --    1.30819   1.31678   1.32818   1.37299   1.41099
 Alpha virt. eigenvalues --    1.44791   1.46692   1.48336   1.48776   1.51800
 Alpha virt. eigenvalues --    1.54079   1.54953   1.55040   1.56252   1.59565
 Alpha virt. eigenvalues --    1.60476   1.60667   1.65698   1.68753   1.71475
 Alpha virt. eigenvalues --    1.73365   1.74256   1.77396   1.78243   1.79274
 Alpha virt. eigenvalues --    1.80470   1.81589   1.82074   1.83307   1.84222
 Alpha virt. eigenvalues --    1.87396   1.87883   1.88917   1.89320   1.90004
 Alpha virt. eigenvalues --    1.92433   1.93838   1.94892   1.95314   1.96786
 Alpha virt. eigenvalues --    1.97856   1.99506   2.00843   2.01060   2.01275
 Alpha virt. eigenvalues --    2.01666   2.02001   2.03072   2.05396   2.08041
 Alpha virt. eigenvalues --    2.08824   2.08849   2.10203   2.11892   2.12921
 Alpha virt. eigenvalues --    2.14943   2.17212   2.18990   2.24499   2.24799
 Alpha virt. eigenvalues --    2.26208   2.26626   2.31122   2.31831   2.32203
 Alpha virt. eigenvalues --    2.32828   2.36485   2.39827   2.40118   2.40367
 Alpha virt. eigenvalues --    2.41325   2.41395   2.44095   2.45828   2.47434
 Alpha virt. eigenvalues --    2.48442   2.50086   2.51980   2.52529   2.57749
 Alpha virt. eigenvalues --    2.58396   2.58527   2.60706   2.63471   2.63787
 Alpha virt. eigenvalues --    2.63992   2.66398   2.70795   2.77872   2.78347
 Alpha virt. eigenvalues --    2.83131   2.83656   2.84414   2.85174   2.85463
 Alpha virt. eigenvalues --    2.87921   2.89537   2.96616   2.98944   3.00824
 Alpha virt. eigenvalues --    3.02988   3.06879   3.07936   3.09651   3.09966
 Alpha virt. eigenvalues --    3.10990   3.11077   3.15367   3.16641   3.16756
 Alpha virt. eigenvalues --    3.17694   3.25754   3.32480   3.34386   3.37851
 Alpha virt. eigenvalues --    3.37926   3.39485   3.44317   3.47100   3.47708
 Alpha virt. eigenvalues --    3.48826   3.50246   3.51213   3.57087   3.60139
 Alpha virt. eigenvalues --    3.66736   3.67584   3.68159   3.69981   3.75661
 Alpha virt. eigenvalues --    3.76495   3.81152   3.85977   3.86594   3.96019
 Alpha virt. eigenvalues --    3.98249   4.05114   4.14062   4.27755   4.30035
 Alpha virt. eigenvalues --    4.37534   4.37684   4.66798   4.76037   4.78908
 Alpha virt. eigenvalues --    4.81467   4.81677   4.85486   4.95826   4.97825
 Alpha virt. eigenvalues --    4.98347   4.98832   5.03549   5.07060   5.09334
 Alpha virt. eigenvalues --    5.17037   5.17554   5.21402   5.26058   5.31304
 Alpha virt. eigenvalues --    5.32616   5.38661   5.47843   5.49207   5.50323
 Alpha virt. eigenvalues --    5.58306   5.66743   5.76951   5.81058   5.91504
 Alpha virt. eigenvalues --    5.92821   5.95950   5.99594   6.03706   6.06107
 Alpha virt. eigenvalues --    6.07824   6.08049   6.09911   6.15298   6.16761
 Alpha virt. eigenvalues --    6.20762   6.22063   6.24804   6.26660   6.32127
 Alpha virt. eigenvalues --    6.33420   6.34263   6.37049   6.39126   6.42634
 Alpha virt. eigenvalues --    6.50178   6.51481   6.52386   6.58578   6.84611
 Alpha virt. eigenvalues --    6.92238   7.00703   7.14648   7.18477   7.20706
 Alpha virt. eigenvalues --    7.21599   7.23667   7.28705   7.33889   7.36317
 Alpha virt. eigenvalues --    7.82521   8.13126   8.19625   8.31413   8.44422
 Alpha virt. eigenvalues --    8.45662   8.55067   8.56797   8.58731   8.61359
 Alpha virt. eigenvalues --    8.63474   8.78093   8.78294   8.85375   8.91301
 Alpha virt. eigenvalues --    9.09170   9.19773   9.19901   9.37842   9.48871
 Alpha virt. eigenvalues --    9.53648   9.62180   9.63113   9.64483   9.73068
 Alpha virt. eigenvalues --    9.77454   9.83639   9.84238  10.13117  20.80336
 Alpha virt. eigenvalues --   21.20929  21.44888  21.55099  21.59577  21.61523
 Alpha virt. eigenvalues --   21.65564  21.70522  21.81829  21.92884  22.16762
 Alpha virt. eigenvalues --   22.39188  23.35693  23.36544  23.85776  24.02371
          Condensed to atoms (all electrons):
               1          2          3          4          5          6
     1  C    5.138489   0.595337  -0.056067  -0.056067   0.236580   0.236580
     2  C    0.595337   4.989145   0.454446   0.454446  -0.031932  -0.031932
     3  H   -0.056067   0.454446   0.487257  -0.019278  -0.003253   0.005580
     4  H   -0.056067   0.454446  -0.019278   0.487257   0.005580  -0.003253
     5  C    0.236580  -0.031932  -0.003253   0.005580   4.924987  -0.079001
     6  C    0.236580  -0.031932   0.005580  -0.003253  -0.079001   4.924987
     7  H   -0.054316  -0.001801   0.000513   0.000200   0.432238   0.011811
     8  H   -0.046649  -0.000138   0.000268  -0.000353   0.419102  -0.010347
     9  H   -0.046649  -0.000138   0.000268  -0.000353   0.419102  -0.010347
    10  H   -0.054316  -0.001801   0.000200   0.000513   0.011811   0.432238
    11  H   -0.046649  -0.000138  -0.000353   0.000268  -0.010347   0.419102
    12  H   -0.046649  -0.000138  -0.000353   0.000268  -0.010347   0.419102
               7          8          9         10         11         12
     1  C   -0.054316  -0.046649  -0.046649  -0.054316  -0.046649  -0.046649
     2  C   -0.001801  -0.000138  -0.000138  -0.001801  -0.000138  -0.000138
     3  H    0.000513   0.000268   0.000268   0.000200  -0.000353  -0.000353
     4  H    0.000200  -0.000353  -0.000353   0.000513   0.000268   0.000268
     5  C    0.432238   0.419102   0.419102   0.011811  -0.010347  -0.010347
     6  C    0.011811  -0.010347  -0.010347   0.432238   0.419102   0.419102
     7  H    0.577043  -0.033820  -0.033820  -0.000369  -0.000208  -0.000208
     8  H   -0.033820   0.626426  -0.056326  -0.000208  -0.001965   0.007260
     9  H   -0.033820  -0.056326   0.626426  -0.000208   0.007260  -0.001965
    10  H   -0.000369  -0.000208  -0.000208   0.577043  -0.033820  -0.033820
    11  H   -0.000208  -0.001965   0.007260  -0.033820   0.626426  -0.056326
    12  H   -0.000208   0.007260  -0.001965  -0.033820  -0.056326   0.626426
          Atomic-Atomic Spin Densities.
               1          2          3          4          5          6
     1  C    0.000000   0.000000   0.000000   0.000000   0.000000   0.000000
     2  C    0.000000   0.000000   0.000000   0.000000   0.000000   0.000000
     3  H    0.000000   0.000000   0.000000   0.000000   0.000000   0.000000
     4  H    0.000000   0.000000   0.000000   0.000000   0.000000   0.000000
     5  C    0.000000   0.000000   0.000000   0.000000   0.000000   0.000000
     6  C    0.000000   0.000000   0.000000   0.000000   0.000000   0.000000
     7  H    0.000000   0.000000   0.000000   0.000000   0.000000   0.000000
     8  H    0.000000   0.000000   0.000000   0.000000   0.000000   0.000000
     9  H    0.000000   0.000000   0.000000   0.000000   0.000000   0.000000
    10  H    0.000000   0.000000   0.000000   0.000000   0.000000   0.000000
    11  H    0.000000   0.000000   0.000000   0.000000   0.000000   0.000000
    12  H    0.000000   0.000000   0.000000   0.000000   0.000000   0.000000
               7          8          9         10         11         12
     1  C    0.000000   0.000000   0.000000   0.000000   0.000000   0.000000
     2  C    0.000000   0.000000   0.000000   0.000000   0.000000   0.000000
     3  H    0.000000   0.000000   0.000000   0.000000   0.000000   0.000000
     4  H    0.000000   0.000000   0.000000   0.000000   0.000000   0.000000
     5  C    0.000000   0.000000   0.000000   0.000000   0.000000   0.000000
     6  C    0.000000   0.000000   0.000000   0.000000   0.000000   0.000000
     7  H    0.000000   0.000000   0.000000   0.000000   0.000000   0.000000
     8  H    0.000000   0.000000   0.000000   0.000000   0.000000   0.000000
     9  H    0.000000   0.000000   0.000000   0.000000   0.000000   0.000000
    10  H    0.000000   0.000000   0.000000   0.000000   0.000000   0.000000
    11  H    0.000000   0.000000   0.000000   0.000000   0.000000   0.000000
    12  H    0.000000   0.000000   0.000000   0.000000   0.000000   0.000000
 Mulliken charges and spin densities:
               1          2
     1  C    0.200377   0.000000
     2  C   -0.425355   0.000000
     3  H    0.130771   0.000000
     4  H    0.130771   0.000000
     5  C   -0.314521   0.000000
     6  C   -0.314521   0.000000
     7  H    0.102737   0.000000
     8  H    0.096751   0.000000
     9  H    0.096751   0.000000
    10  H    0.102737   0.000000
    11  H    0.096751   0.000000
    12  H    0.096751   0.000000
 Sum of Mulliken charges =  -0.00000   0.00000
 Mulliken charges and spin densities with hydrogens summed into heavy atoms:
               1          2
     1  C    0.200377   0.000000
     2  C   -0.163813   0.000000
     5  C   -0.018282   0.000000
     6  C   -0.018282   0.000000
 Electronic spatial extent (au):  <R**2>=            324.4929
 Charge=             -0.0000 electrons
 Dipole moment (field-independent basis, Debye):
    X=              0.0000    Y=              0.0000    Z=             -0.5839  Tot=              0.5839
 Quadrupole moment (field-independent basis, Debye-Ang):
   XX=            -28.6241   YY=            -25.9404   ZZ=            -26.4371
   XY=             -0.0000   XZ=             -0.0000   YZ=              0.0000
 Traceless Quadrupole moment (field-independent basis, Debye-Ang):
   XX=             -1.6236   YY=              1.0601   ZZ=              0.5634
   XY=             -0.0000   XZ=             -0.0000   YZ=              0.0000
 Octapole moment (field-independent basis, Debye-Ang**2):
  XXX=              0.0000  YYY=             -0.0000  ZZZ=              0.6849  XYY=              0.0000
  XXY=              0.0000  XXZ=             -4.0951  XZZ=              0.0000  YZZ=             -0.0000
  YYZ=              2.1459  XYZ=              0.0000
 Hexadecapole moment (field-independent basis, Debye-Ang**3):
 XXXX=            -46.9602 YYYY=           -210.7683 ZZZZ=           -194.6448 XXXY=             -0.0000
 XXXZ=             -0.0000 YYYX=              0.0000 YYYZ=              0.0000 ZZZX=             -0.0000
 ZZZY=             -0.0000 XXYY=            -44.3755 XXZZ=            -41.4960 YYZZ=            -65.7023
 XXYZ=              0.0000 YYXZ=             -0.0000 ZZXY=             -0.0000
 N-N= 1.198827883124D+02 E-N=-6.025971683037D+02  KE= 1.560345231915D+02
 Symmetry A1   KE= 1.089398765752D+02
 Symmetry A2   KE= 1.996191774145D+00
 Symmetry B1   KE= 3.820643115322D+00
 Symmetry B2   KE= 4.127781172676D+01
 Symmetry A1   SP= 0.000000000000D+00
 Symmetry A2   SP= 0.000000000000D+00
 Symmetry B1   SP= 0.000000000000D+00
 Symmetry B2   SP= 0.000000000000D+00
                          Isotropic Fermi Contact Couplings
        Atom                 a.u.       MegaHertz       Gauss      10(-4) cm-1
     1  C(13)              0.00000       0.00000       0.00000       0.00000
     2  C(13)              0.00000       0.00000       0.00000       0.00000
     3  H(1)               0.00000       0.00000       0.00000       0.00000
     4  H(1)               0.00000       0.00000       0.00000       0.00000
     5  C(13)              0.00000       0.00000       0.00000       0.00000
     6  C(13)              0.00000       0.00000       0.00000       0.00000
     7  H(1)               0.00000       0.00000       0.00000       0.00000
     8  H(1)               0.00000       0.00000       0.00000       0.00000
     9  H(1)               0.00000       0.00000       0.00000       0.00000
    10  H(1)               0.00000       0.00000       0.00000       0.00000
    11  H(1)               0.00000       0.00000       0.00000       0.00000
    12  H(1)               0.00000       0.00000       0.00000       0.00000
 --------------------------------------------------------
       Center         ----  Spin Dipole Couplings  ----
                      3XX-RR        3YY-RR        3ZZ-RR
 --------------------------------------------------------
     1   Atom        0.000000      0.000000      0.000000
     2   Atom        0.000000      0.000000      0.000000
     3   Atom        0.000000      0.000000      0.000000
     4   Atom        0.000000      0.000000      0.000000
     5   Atom        0.000000      0.000000      0.000000
     6   Atom        0.000000      0.000000      0.000000
     7   Atom        0.000000      0.000000      0.000000
     8   Atom        0.000000      0.000000      0.000000
     9   Atom        0.000000      0.000000      0.000000
    10   Atom        0.000000      0.000000      0.000000
    11   Atom        0.000000      0.000000      0.000000
    12   Atom        0.000000      0.000000      0.000000
 --------------------------------------------------------
                        XY            XZ            YZ
 --------------------------------------------------------
     1   Atom        0.000000      0.000000      0.000000
     2   Atom        0.000000      0.000000      0.000000
     3   Atom        0.000000      0.000000      0.000000
     4   Atom        0.000000      0.000000      0.000000
     5   Atom        0.000000      0.000000      0.000000
     6   Atom        0.000000      0.000000      0.000000
     7   Atom        0.000000      0.000000      0.000000
     8   Atom        0.000000      0.000000      0.000000
     9   Atom        0.000000      0.000000      0.000000
    10   Atom        0.000000      0.000000      0.000000
    11   Atom        0.000000      0.000000      0.000000
    12   Atom        0.000000      0.000000      0.000000
 --------------------------------------------------------


 ---------------------------------------------------------------------------------
              Anisotropic Spin Dipole Couplings in Principal Axis System
 ---------------------------------------------------------------------------------

       Atom             a.u.   MegaHertz   Gauss  10(-4) cm-1        Axes

              Baa     0.0000     0.000     0.000     0.000  1.0000  0.0000  0.0000
     1 C(13)  Bbb     0.0000     0.000     0.000     0.000 -0.0000  1.0000  0.0000
              Bcc     0.0000     0.000     0.000     0.000  0.0000  0.0000  1.0000
 
              Baa     0.0000     0.000     0.000     0.000  1.0000  0.0000  0.0000
     2 C(13)  Bbb     0.0000     0.000     0.000     0.000 -0.0000  1.0000  0.0000
              Bcc     0.0000     0.000     0.000     0.000  0.0000  0.0000  1.0000
 
              Baa     0.0000     0.000     0.000     0.000  1.0000  0.0000  0.0000
     3 H(1)   Bbb     0.0000     0.000     0.000     0.000 -0.0000  1.0000  0.0000
              Bcc     0.0000     0.000     0.000     0.000  0.0000  0.0000  1.0000
 
              Baa     0.0000     0.000     0.000     0.000  1.0000  0.0000  0.0000
     4 H(1)   Bbb     0.0000     0.000     0.000     0.000 -0.0000  1.0000  0.0000
              Bcc     0.0000     0.000     0.000     0.000  0.0000  0.0000  1.0000
 
              Baa     0.0000     0.000     0.000     0.000  1.0000  0.0000  0.0000
     5 C(13)  Bbb     0.0000     0.000     0.000     0.000 -0.0000  1.0000  0.0000
              Bcc     0.0000     0.000     0.000     0.000  0.0000  0.0000  1.0000
 
              Baa     0.0000     0.000     0.000     0.000  1.0000  0.0000  0.0000
     6 C(13)  Bbb     0.0000     0.000     0.000     0.000 -0.0000  1.0000  0.0000
              Bcc     0.0000     0.000     0.000     0.000  0.0000  0.0000  1.0000
 
              Baa     0.0000     0.000     0.000     0.000  1.0000  0.0000  0.0000
     7 H(1)   Bbb     0.0000     0.000     0.000     0.000 -0.0000  1.0000  0.0000
              Bcc     0.0000     0.000     0.000     0.000  0.0000  0.0000  1.0000
 
              Baa     0.0000     0.000     0.000     0.000  1.0000  0.0000  0.0000
     8 H(1)   Bbb     0.0000     0.000     0.000     0.000 -0.0000  1.0000  0.0000
              Bcc     0.0000     0.000     0.000     0.000  0.0000  0.0000  1.0000
 
              Baa     0.0000     0.000     0.000     0.000  1.0000  0.0000  0.0000
     9 H(1)   Bbb     0.0000     0.000     0.000     0.000 -0.0000  1.0000  0.0000
              Bcc     0.0000     0.000     0.000     0.000  0.0000  0.0000  1.0000
 
              Baa     0.0000     0.000     0.000     0.000  1.0000  0.0000  0.0000
    10 H(1)   Bbb     0.0000     0.000     0.000     0.000 -0.0000  1.0000  0.0000
              Bcc     0.0000     0.000     0.000     0.000  0.0000  0.0000  1.0000
 
              Baa     0.0000     0.000     0.000     0.000  1.0000  0.0000  0.0000
    11 H(1)   Bbb     0.0000     0.000     0.000     0.000 -0.0000  1.0000  0.0000
              Bcc     0.0000     0.000     0.000     0.000  0.0000  0.0000  1.0000
 
              Baa     0.0000     0.000     0.000     0.000  1.0000  0.0000  0.0000
    12 H(1)   Bbb     0.0000     0.000     0.000     0.000 -0.0000  1.0000  0.0000
              Bcc     0.0000     0.000     0.000     0.000  0.0000  0.0000  1.0000
 

 ---------------------------------------------------------------------------------

 1\1\GINC-GAMBA\SP\ROHF\Gen\C4H8\IRIKURA\29-Sep-2023\0\\# rohf/gen geom
 =check guess=check\\isobutene, ROHF/cc-pVTZ-F12\\0,1\C,0,0.,0.,0.12401
 4\C,0,0.,0.,1.454677\H,0,0.,0.921724,2.022016\H,0,0.,-0.921724,2.02201
 6\C,0,0.,1.272525,-0.676943\C,0,0.,-1.272525,-0.676943\H,0,0.,2.153978
 ,-0.037787\H,0,0.876253,1.321507,-1.329322\H,0,-0.876253,1.321507,-1.3
 29322\H,0,0.,-2.153978,-0.037787\H,0,-0.876253,-1.321507,-1.329322\H,0
 ,0.876253,-1.321507,-1.329322\\Version=ES64L-G16RevB.01\State=1-A1\HF=
 -156.1781029\RMSD=2.579e-09\Dipole=0.,0.,-0.2297254\Quadrupole=-1.2070
 994,0.7881923,0.4189071,0.,0.,0.\PG=C02V [C2(C1C1),SGV(C2H4),X(H4)]\\@


 At the touch of love, everyone becomes a poet.
                                -- Plato
 Job cpu time:       0 days  0 hours  4 minutes 43.4 seconds.
 Elapsed time:       0 days  0 hours  1 minutes 10.9 seconds.
 File lengths (MBytes):  RWF=     93 Int=      0 D2E=      0 Chk=     12 Scr=      1
 Normal termination of Gaussian 16 at Fri Sep 29 14:49:41 2023.
