 Entering Gaussian System, Link 0=g16
 AtFile(1): pcseg2.gbs
            -H     0
            S   4   1.00
                  0.754732D+02           0.427821D-02
                  0.113575D+02           0.328672D-01
                  0.260081D+01           0.159578D+00
                  0.735503D+00           0.500000D+00
            S   1   1.00
                  0.231761D+00           1.0000000
            S   1   1.00
                  0.741675D-01           1.0000000
            P   1   1.00
                  0.160000D+01           1.0000000
            P   1   1.00
                  0.450000D+00           1.0000000
            D   1   1.00
                  0.125000D+01           1.0000000
            ****
            -C     0
            S   7   1.00
                  0.731999D+04           0.695369D-03
                  0.109818D+04           0.537138D-02
                  0.250014D+03           0.274734D-01
                  0.707586D+02           0.105078D+00
                  0.228595D+02           0.291262D+00
                  0.803936D+01           0.500000D+00
                  0.289309D+01           0.362224D+00
            S   2   1.00
                  0.521640D+01          -0.957844D-01
                  0.556124D+00           0.500000D+00
            S   1   1.00
                  0.228813D+00           1.0000000
            S   1   1.00
                  0.936338D-01           1.0000000
            P   4   1.00
                  0.339855D+02           0.818395D-02
                  0.772957D+01           0.586921D-01
                  0.224954D+01           0.222514D+00
                  0.767681D+00           0.500000D+00
            P   1   1.00
                  0.263283D+00           1.0000000
            P   1   1.00
                  0.848744D-01           1.0000000
            D   1   1.00
                  0.140000D+01           1.0000000
            D   1   1.00
                  0.450000D+00           1.0000000
            F   1   1.00
                  0.950000D+00           1.0000000
            ****
            -O     0
            S   7   1.00
                  0.135887D+05           0.665492D-03
                  0.203847D+04           0.514222D-02
                  0.464041D+03           0.263472D-01
                  0.131339D+03           0.101500D+00
                  0.425340D+02           0.285877D+00
                  0.150429D+02           0.500000D+00
                  0.546616D+01           0.368211D+00
            S   2   1.00
                  0.100915D+02          -0.100084D+00
                  0.110429D+01           0.500000D+00
            S   1   1.00
                  0.448082D+00           1.0000000
            S   1   1.00
                  0.175325D+00           1.0000000
            P   4   1.00
                  0.608220D+02           0.908253D-02
                  0.140332D+02           0.645878D-01
                  0.418244D+01           0.241502D+00
                  0.142490D+01           0.500000D+00
            P   1   1.00
                  0.478741D+00           1.0000000
            P   1   1.00
                  0.146257D+00           1.0000000
            D   1   1.00
                  0.220000D+01           1.0000000
            D   1   1.00
                  0.650000D+00           1.0000000
            F   1   1.00
                  0.110000D+01           1.0000000
            ****
            -N     0
            S   7   1.00
                  0.101643D+05           0.682757D-03
                  0.152481D+04           0.527488D-02
                  0.347119D+03           0.270037D-01
                  0.982389D+02           0.103673D+00
                  0.317799D+02           0.289575D+00
                  0.112240D+02           0.500000D+00
                  0.406611D+01           0.364621D+00
            S   2   1.00
                  0.747898D+01          -0.975681D-01
                  0.805040D+00           0.500000D+00
            S   1   1.00
                  0.324626D+00           1.0000000
            S   1   1.00
                  0.128132D+00           1.0000000
            P   4   1.00
                  0.482704D+02           0.829547D-02
                  0.110815D+02           0.596223D-01
                  0.326643D+01           0.227889D+00
                  0.111680D+01           0.500000D+00
            P   1   1.00
                  0.382049D+00           1.0000000
            P   1   1.00
                  0.121222D+00           1.0000000
            D   1   1.00
                  0.180000D+01           1.0000000
            D   1   1.00
                  0.550000D+00           1.0000000
            F   1   1.00
                  0.102000D+01           1.0000000
            ****
            -F     0
            S   7   1.00
                  0.174507D+05           0.655972D-03
                  0.261768D+04           0.506944D-02
                  0.595857D+03           0.259899D-01
                  0.168651D+03           0.100353D+00
                  0.546654D+02           0.284095D+00
                  0.193717D+02           0.500000D+00
                  0.706202D+01           0.370721D+00
            S   2   1.00
                  0.131197D+02          -0.101997D+00
                  0.145046D+01           0.500000D+00
            S   1   1.00
                  0.588255D+00           1.0000000
            S   1   1.00
                  0.227960D+00           1.0000000
            P   4   1.00
                  0.779407D+02           0.931135D-02
                  0.180425D+02           0.663964D-01
                  0.542342D+01           0.246386D+00
                  0.184876D+01           0.500000D+00
            P   1   1.00
                  0.617455D+00           1.0000000
            P   1   1.00
                  0.185496D+00           1.0000000
            D   1   1.00
                  0.280000D+01           1.0000000
            D   1   1.00
                  0.800000D+00           1.0000000
            F   1   1.00
                  0.120000D+01           1.0000000
            ****
            -Cl     0
            S   8   1.00
                  0.154272D+06           0.222473D-03
                  0.231232D+05           0.172590D-02
                  0.526257D+04           0.899286D-02
                  0.148995D+04           0.367724D-01
                  0.485417D+03           0.121446D+00
                  0.174634D+03           0.304148D+00
                  0.672393D+02           0.500000D+00
                  0.265780D+02           0.360252D+00
            S   3   1.00
                  0.131826D+03          -0.531330D-01
                  0.400703D+02          -0.233346D+00
                  0.789448D+01           0.500000D+00
            S   2   1.00
                  0.427711D+01           0.500000D+00
                  0.196233D+01           0.370517D+00
            S   1   1.00
                  0.520793D+00           1.0000000
            S   1   1.00
                  0.181633D+00           1.0000000
            P   7   1.00
                  0.124440D+04           0.988206D-03
                  0.295109D+03           0.829674D-02
                  0.947224D+02           0.430906D-01
                  0.352588D+02           0.148443D+00
                  0.144211D+02           0.344744D+00
                  0.610371D+01           0.500000D+00
                  0.258886D+01           0.348278D+00
            P   2   1.00
                  0.109447D+02          -0.196768D-01
                  0.104413D+01           0.500000D+00
            P   1   1.00
                  0.376184D+00           1.0000000
            P   1   1.00
                  0.120613D+00           1.0000000
            D   1   1.00
                  0.231000D+01           1.0000000
            D   1   1.00
                  0.520000D+00           1.0000000
            F   1   1.00
                  0.720000D+00           1.0000000
            ****
            -S     0
            S   8   1.00
                  0.134700D+06           0.226231D-03
                  0.201904D+05           0.175488D-02
                  0.459528D+04           0.914190D-02
                  0.130109D+04           0.373551D-01
                  0.423902D+03           0.123121D+00
                  0.152485D+03           0.306801D+00
                  0.586925D+02           0.500000D+00
                  0.231461D+02           0.354358D+00
            S   3   1.00
                  0.116327D+03          -0.491772D-01
                  0.352841D+02          -0.215962D+00
                  0.677831D+01           0.500000D+00
            S   2   1.00
                  0.360404D+01           0.500000D+00
                  0.164871D+01           0.366278D+00
            S   1   1.00
                  0.421821D+00           1.0000000
            S   1   1.00
                  0.147554D+00           1.0000000
            P   7   1.00
                  0.104863D+04           0.105273D-02
                  0.248717D+03           0.879338D-02
                  0.797887D+02           0.453358D-01
                  0.296023D+02           0.154476D+00
                  0.120627D+02           0.352366D+00
                  0.507628D+01           0.500000D+00
                  0.213375D+01           0.346429D+00
            P   2   1.00
                  0.928958D+01          -0.185932D-01
                  0.837819D+00           0.500000D+00
            P   1   1.00
                  0.301495D+00           1.0000000
            P   1   1.00
                  0.974740D-01           1.0000000
            D   1   1.00
                  0.210000D+01           1.0000000
            D   1   1.00
                  0.480000D+00           1.0000000
            F   1   1.00
                  0.660000D+00           1.0000000
            ****
            -Br     0
            S    10   1.00
                  0.233625D+07           0.532336D-04
                  0.349961D+06           0.413715D-03
                  0.796444D+05           0.217123D-02
                  0.225555D+05           0.910109D-02
                  0.735546D+04           0.323789D-01
                  0.265352D+04           0.988755D-01
                  0.103517D+04           0.248138D+00
                  0.422205D+03           0.474328D+00
                  0.180035D+03           0.500000D+00
                  0.793308D+02           0.187769D+00
            S    4   1.00
                  0.620834D+03          -0.226511D-01
                  0.190829D+03          -0.109497D+00
                  0.312505D+02           0.500000D+00
                  0.135270D+02           0.492812D+00
            S    2   1.00
                  0.216097D+02          -0.165418D+00
                  0.372566D+01           0.500000D+00
            S    1   1.00
                  0.169770D+01           1.0000000
            S    1   1.00
                  0.489332D+00           1.0000000
            S    1   1.00
                  0.175712D+00           1.0000000
            P    8   1.00
                  0.960829D+04           0.478974D-03
                  0.227618D+04           0.417853D-02
                  0.736723D+03           0.229315D-01
                  0.281579D+03           0.892653D-01
                  0.118395D+03           0.255288D+00
                  0.527481D+02           0.479074D+00
                  0.245098D+02           0.500000D+00
                  0.112009D+02           0.200944D+00
            P    4   1.00
                  0.587849D+02          -0.189674D-01
                  0.918962D+01           0.264104D+00
                  0.413895D+01           0.500000D+00
                  0.184225D+01           0.319316D+00
            P    1   1.00
                  0.713862D+00           1.0000000
            P    1   1.00
                  0.274232D+00           1.0000000
            P    1   1.00
                  0.944411D-01           1.0000000
            D    7   1.00
                  0.398470D+03           0.204066D-02
                  0.118967D+03           0.175171D-01
                  0.450197D+02           0.829708D-01
                  0.190320D+02           0.236284D+00
                  0.855686D+01           0.428468D+00
                  0.382950D+01           0.500000D+00
                  0.166291D+01           0.349360D+00
            D    1   1.00
                  0.672953D+00           1.0000000
            D    1   1.00
                  0.252000D+00           1.0000000
            F    1   1.00
                  0.530000D+00           1.0000000
            ****
            -Si     0
            S    8   1.00
                  0.996133D+05           0.235546D-03
                  0.149311D+05           0.182707D-02
                  0.339820D+04           0.951425D-02
                  0.962140D+03           0.388172D-01
                  0.313430D+03           0.127328D+00
                  0.112683D+03           0.313522D+00
                  0.433372D+02           0.500000D+00
                  0.170029D+02           0.340347D+00
            S    3   1.00
                  0.884208D+02          -0.404451D-01
                  0.266756D+02          -0.178059D+00
                  0.479640D+01           0.500000D+00
            S    2   1.00
                  0.239385D+01           0.500000D+00
                  0.108333D+01           0.338016D+00
            S    1   1.00
                  0.252420D+00           1.0000000
            S    1   1.00
                  0.891210D-01           1.0000000
            P    7   1.00
                  0.709901D+03           0.123028D-02
                  0.168426D+03           0.101366D-01
                  0.539946D+02           0.511840D-01
                  0.198646D+02           0.169967D+00
                  0.801369D+01           0.370717D+00
                  0.331870D+01           0.500000D+00
                  0.136112D+01           0.344128D+00
            P    2   1.00
                  0.622158D+01          -0.166609D-01
                  0.503049D+00           0.500000D+00
            P    1   1.00
                  0.179848D+00           1.0000000
            P    1   1.00
                  0.591912D-01           1.0000000
            D    1   1.00
                  0.168000D+01           1.0000000
            D    1   1.00
                  0.380000D+00           1.0000000
            F    1   1.00
                  0.540000D+00           1.0000000
            ****
            -P     0
            S    8   1.00
                  0.116416D+06           0.230715D-03
                  0.174500D+05           0.178960D-02
                  0.397149D+04           0.932116D-02
                  0.112447D+04           0.380591D-01
                  0.366347D+03           0.125148D+00
                  0.131757D+03           0.310022D+00
                  0.506988D+02           0.500000D+00
                  0.199436D+02           0.347528D+00
            S    3   1.00
                  0.101878D+03          -0.446755D-01
                  0.308249D+02          -0.196376D+00
                  0.573688D+01           0.500000D+00
            S    2   1.00
                  0.296868D+01           0.500000D+00
                  0.135315D+01           0.355098D+00
            S    1   1.00
                  0.332196D+00           1.0000000
            S    1   1.00
                  0.116229D+00           1.0000000
            P    7   1.00
                  0.873928D+03           0.112375D-02
                  0.207298D+03           0.933330D-02
                  0.664628D+02           0.477213D-01
                  0.245665D+02           0.160733D+00
                  0.996820D+01           0.359760D+00
                  0.416536D+01           0.500000D+00
                  0.173022D+01           0.346593D+00
            P    2   1.00
                  0.772530D+01          -0.175718D-01
                  0.657252D+00           0.500000D+00
            P    1   1.00
                  0.239903D+00           1.0000000
            P    1   1.00
                  0.800988D-01           1.0000000
            D    1   1.00
                  0.189000D+01           1.0000000
            D    1   1.00
                  0.430000D+00           1.0000000
            F    1   1.00
                  0.600000D+00           1.0000000
            ****
            
 Initial command:
 /usr/local/apps/g16_b01_avx/g16/l1.exe "/wrk/irikura/Gau-394906.inp" -scrdir="/wrk/irikura/"
 Entering Link 1 = /usr/local/apps/g16_b01_avx/g16/l1.exe PID=    394908.
  
 Copyright (c) 1988-2017, Gaussian, Inc.  All Rights Reserved.
  
 This is part of the Gaussian(R) 16 program.  It is based on
 the Gaussian(R) 09 system (copyright 2009, Gaussian, Inc.),
 the Gaussian(R) 03 system (copyright 2003, Gaussian, Inc.),
 the Gaussian(R) 98 system (copyright 1998, Gaussian, Inc.),
 the Gaussian(R) 94 system (copyright 1995, Gaussian, Inc.),
 the Gaussian 92(TM) system (copyright 1992, Gaussian, Inc.),
 the Gaussian 90(TM) system (copyright 1990, Gaussian, Inc.),
 the Gaussian 88(TM) system (copyright 1988, Gaussian, Inc.),
 the Gaussian 86(TM) system (copyright 1986, Carnegie Mellon
 University), and the Gaussian 82(TM) system (copyright 1983,
 Carnegie Mellon University). Gaussian is a federally registered
 trademark of Gaussian, Inc.
  
 This software contains proprietary and confidential information,
 including trade secrets, belonging to Gaussian, Inc.
  
 This software is provided under written license and may be
 used, copied, transmitted, or stored only in accord with that
 written license.
  
 The following legend is applicable only to US Government
 contracts under FAR:
  
                    RESTRICTED RIGHTS LEGEND
  
 Use, reproduction and disclosure by the US Government is
 subject to restrictions as set forth in subparagraphs (a)
 and (c) of the Commercial Computer Software - Restricted
 Rights clause in FAR 52.227-19.
  
 Gaussian, Inc.
 340 Quinnipiac St., Bldg. 40, Wallingford CT 06492
  
  
 ---------------------------------------------------------------
 Warning -- This program may not be used in any manner that
 competes with the business of Gaussian, Inc. or will provide
 assistance to any competitor of Gaussian, Inc.  The licensee
 of this program is prohibited from giving any competitor of
 Gaussian, Inc. access to this program.  By using this program,
 the user acknowledges that Gaussian, Inc. is engaged in the
 business of creating and licensing software in the field of
 computational chemistry and represents and warrants to the
 licensee that it is not a competitor of Gaussian, Inc. and that
 it will not use this program in any manner prohibited above.
 ---------------------------------------------------------------
  

 Cite this work as:
 Gaussian 16, Revision B.01,
 M. J. Frisch, G. W. Trucks, H. B. Schlegel, G. E. Scuseria, 
 M. A. Robb, J. R. Cheeseman, G. Scalmani, V. Barone, 
 G. A. Petersson, H. Nakatsuji, X. Li, M. Caricato, A. V. Marenich, 
 J. Bloino, B. G. Janesko, R. Gomperts, B. Mennucci, H. P. Hratchian, 
 J. V. Ortiz, A. F. Izmaylov, J. L. Sonnenberg, D. Williams-Young, 
 F. Ding, F. Lipparini, F. Egidi, J. Goings, B. Peng, A. Petrone, 
 T. Henderson, D. Ranasinghe, V. G. Zakrzewski, J. Gao, N. Rega, 
 G. Zheng, W. Liang, M. Hada, M. Ehara, K. Toyota, R. Fukuda, 
 J. Hasegawa, M. Ishida, T. Nakajima, Y. Honda, O. Kitao, H. Nakai, 
 T. Vreven, K. Throssell, J. A. Montgomery, Jr., J. E. Peralta, 
 F. Ogliaro, M. J. Bearpark, J. J. Heyd, E. N. Brothers, K. N. Kudin, 
 V. N. Staroverov, T. A. Keith, R. Kobayashi, J. Normand, 
 K. Raghavachari, A. P. Rendell, J. C. Burant, S. S. Iyengar, 
 J. Tomasi, M. Cossi, J. M. Millam, M. Klene, C. Adamo, R. Cammi, 
 J. W. Ochterski, R. L. Martin, K. Morokuma, O. Farkas, 
 J. B. Foresman, and D. J. Fox, Gaussian, Inc., Wallingford CT, 2016.
 
 ******************************************
 Gaussian 16:  ES64L-G16RevB.01 20-Dec-2017
                29-Sep-2023 
 ******************************************
 %chk=isoprene.chk
 %mem=500mw
 %nprocs=4
 Will use up to    4 processors via shared memory.
 ---------------------------------------
 # b3lyp/gen opt freq CPHF(Grid=OneStep)
 ---------------------------------------
 1/18=20,19=15,26=3,38=1/1,3;
 2/9=110,12=2,17=6,18=5,40=1/2;
 3/5=7,11=2,25=1,30=1,71=1,74=-5/1,2,3;
 4//1;
 5/5=2,38=5/2;
 6/7=2,8=2,9=2,10=2,28=1/1;
 7//1,2,3,16;
 1/18=20,19=15,26=3/3(2);
 2/9=110/2;
 99//99;
 2/9=110/2;
 3/5=7,6=1,11=2,25=1,30=1,71=1,74=-5,82=7/1,2,3;
 4/5=5,16=3,69=1/1;
 5/5=2,38=5/2;
 7//1,2,3,16;
 1/18=20,19=15,26=3/3(-5);
 2/9=110/2;
 6/7=2,8=2,9=2,10=2,19=2,28=1/1;
 99/9=1/99;
 -------------------------------------
 2-methyl-1,3-butadiene, B3LYP/pcseg-2
 -------------------------------------
 Symbolic Z-matrix:
 Charge =  0 Multiplicity = 1
 C                    -0.59038   1.725     0. 
 C                     0.        0.52382   0. 
 C                    -0.82159  -0.68812   0. 
 C                    -0.37158  -1.944     0. 
 C                     1.49788   0.38297   0. 
 H                    -1.66819   1.82268   0. 
 H                    -0.01644   2.64162   0. 
 H                    -1.89364  -0.51928   0. 
 H                     0.68354  -2.1815    0. 
 H                    -1.05484  -2.78158   0. 
 H                     1.98195   1.35755   0. 
 H                     1.84083  -0.16879   0.87783 
 H                     1.84083  -0.16879  -0.87783 
 

 GradGradGradGradGradGradGradGradGradGradGradGradGradGradGradGradGradGrad
 Berny optimization.
 Initialization pass.
                           ----------------------------
                           !    Initial Parameters    !
                           ! (Angstroms and Degrees)  !
 --------------------------                            --------------------------
 ! Name  Definition              Value          Derivative Info.                !
 --------------------------------------------------------------------------------
 ! R1    R(1,2)                  1.3384         estimate D2E/DX2                !
 ! R2    R(1,6)                  1.0822         estimate D2E/DX2                !
 ! R3    R(1,7)                  1.0815         estimate D2E/DX2                !
 ! R4    R(2,3)                  1.4642         estimate D2E/DX2                !
 ! R5    R(2,5)                  1.5045         estimate D2E/DX2                !
 ! R6    R(3,4)                  1.3341         estimate D2E/DX2                !
 ! R7    R(3,8)                  1.0853         estimate D2E/DX2                !
 ! R8    R(4,9)                  1.0815         estimate D2E/DX2                !
 ! R9    R(4,10)                 1.0809         estimate D2E/DX2                !
 ! R10   R(5,11)                 1.0882         estimate D2E/DX2                !
 ! R11   R(5,12)                 1.0921         estimate D2E/DX2                !
 ! R12   R(5,13)                 1.0921         estimate D2E/DX2                !
 ! A1    A(2,1,6)              121.3529         estimate D2E/DX2                !
 ! A2    A(2,1,7)              121.7732         estimate D2E/DX2                !
 ! A3    A(6,1,7)              116.874          estimate D2E/DX2                !
 ! A4    A(1,2,3)              119.6918         estimate D2E/DX2                !
 ! A5    A(1,2,5)              121.546          estimate D2E/DX2                !
 ! A6    A(3,2,5)              118.7622         estimate D2E/DX2                !
 ! A7    A(2,3,4)              126.1518         estimate D2E/DX2                !
 ! A8    A(2,3,8)              115.1839         estimate D2E/DX2                !
 ! A9    A(4,3,8)              118.6642         estimate D2E/DX2                !
 ! A10   A(3,4,9)              122.3996         estimate D2E/DX2                !
 ! A11   A(3,4,10)             121.0798         estimate D2E/DX2                !
 ! A12   A(9,4,10)             116.5207         estimate D2E/DX2                !
 ! A13   A(2,5,11)             111.0415         estimate D2E/DX2                !
 ! A14   A(2,5,12)             111.0976         estimate D2E/DX2                !
 ! A15   A(2,5,13)             111.0976         estimate D2E/DX2                !
 ! A16   A(11,5,12)            108.2278         estimate D2E/DX2                !
 ! A17   A(11,5,13)            108.2278         estimate D2E/DX2                !
 ! A18   A(12,5,13)            106.9918         estimate D2E/DX2                !
 ! D1    D(6,1,2,3)              0.0            estimate D2E/DX2                !
 ! D2    D(6,1,2,5)            180.0            estimate D2E/DX2                !
 ! D3    D(7,1,2,3)            180.0            estimate D2E/DX2                !
 ! D4    D(7,1,2,5)              0.0            estimate D2E/DX2                !
 ! D5    D(1,2,3,4)            180.0            estimate D2E/DX2                !
 ! D6    D(1,2,3,8)              0.0            estimate D2E/DX2                !
 ! D7    D(5,2,3,4)              0.0            estimate D2E/DX2                !
 ! D8    D(5,2,3,8)            180.0            estimate D2E/DX2                !
 ! D9    D(1,2,5,11)             0.0            estimate D2E/DX2                !
 ! D10   D(1,2,5,12)           120.5071         estimate D2E/DX2                !
 ! D11   D(1,2,5,13)          -120.5071         estimate D2E/DX2                !
 ! D12   D(3,2,5,11)           180.0            estimate D2E/DX2                !
 ! D13   D(3,2,5,12)           -59.4929         estimate D2E/DX2                !
 ! D14   D(3,2,5,13)            59.4929         estimate D2E/DX2                !
 ! D15   D(2,3,4,9)              0.0            estimate D2E/DX2                !
 ! D16   D(2,3,4,10)           180.0            estimate D2E/DX2                !
 ! D17   D(8,3,4,9)            180.0            estimate D2E/DX2                !
 ! D18   D(8,3,4,10)             0.0            estimate D2E/DX2                !
 --------------------------------------------------------------------------------
 Trust Radius=3.00D-01 FncErr=1.00D-07 GrdErr=1.00D-06 EigMax=2.50D+02 EigMin=1.00D-04
 Number of steps in this run=     58 maximum allowed number of steps=    100.
 GradGradGradGradGradGradGradGradGradGradGradGradGradGradGradGradGradGrad

                          Input orientation:                          
 ---------------------------------------------------------------------
 Center     Atomic      Atomic             Coordinates (Angstroms)
 Number     Number       Type             X           Y           Z
 ---------------------------------------------------------------------
      1          6           0       -0.590379    1.724998    0.000000
      2          6           0        0.000000    0.523821    0.000000
      3          6           0       -0.821594   -0.688115    0.000000
      4          6           0       -0.371575   -1.943997    0.000000
      5          6           0        1.497875    0.382972    0.000000
      6          1           0       -1.668189    1.822683    0.000000
      7          1           0       -0.016438    2.641619    0.000000
      8          1           0       -1.893636   -0.519276    0.000000
      9          1           0        0.683541   -2.181497    0.000000
     10          1           0       -1.054839   -2.781578    0.000000
     11          1           0        1.981945    1.357553    0.000000
     12          1           0        1.840828   -0.168787    0.877830
     13          1           0        1.840828   -0.168787   -0.877830
 ---------------------------------------------------------------------
                    Distance matrix (angstroms):
                    1          2          3          4          5
     1  C    0.000000
     2  C    1.338422   0.000000
     3  C    2.424165   1.464174   0.000000
     4  C    3.675514   2.495635   1.334075   0.000000
     5  C    2.482305   1.504483   2.554831   2.984900   0.000000
     6  H    1.082228   2.114213   2.649685   3.983602   3.478035
     7  H    1.081482   2.117862   3.425698   4.599347   2.719307
     8  H    2.595235   2.161922   1.085256   2.084826   3.509473
     9  H    4.108963   2.790336   2.120288   1.081516   2.690658
    10  H    4.530447   3.469632   2.106417   1.080922   4.065799
    11  H    2.598435   2.150166   3.470531   4.054539   1.088178
    12  H    3.204337   2.153820   2.851101   2.969290   1.092081
    13  H    3.204337   2.153820   2.851101   2.969290   1.092081
                    6          7          8          9         10
     6  H    0.000000
     7  H    1.843621   0.000000
     8  H    2.352785   3.676293   0.000000
     9  H    4.643715   4.873645   3.066728   0.000000
    10  H    4.644935   5.521716   2.412797   1.839038   0.000000
    11  H    3.679650   2.375365   4.306114   3.769712   5.133660
    12  H    4.129133   3.481150   3.852227   2.482116   3.997768
    13  H    4.129133   3.481150   3.852227   2.482116   3.997768
                   11         12         13
    11  H    0.000000
    12  H    1.766413   0.000000
    13  H    1.766413   1.755660   0.000000
 Stoichiometry    C5H8
 Framework group  CS[SG(C5H6),X(H2)]
 Deg. of freedom    22
 Full point group                 CS      NOp   2
 Largest Abelian subgroup         CS      NOp   2
 Largest concise Abelian subgroup CS      NOp   2
                         Standard orientation:                         
 ---------------------------------------------------------------------
 Center     Atomic      Atomic             Coordinates (Angstroms)
 Number     Number       Type             X           Y           Z
 ---------------------------------------------------------------------
      1          6           0       -0.590379    1.724998    0.000000
      2          6           0        0.000000    0.523821    0.000000
      3          6           0       -0.821594   -0.688115    0.000000
      4          6           0       -0.371575   -1.943997    0.000000
      5          6           0        1.497875    0.382972    0.000000
      6          1           0       -1.668189    1.822683    0.000000
      7          1           0       -0.016438    2.641619    0.000000
      8          1           0       -1.893636   -0.519276    0.000000
      9          1           0        0.683541   -2.181497    0.000000
     10          1           0       -1.054839   -2.781578    0.000000
     11          1           0        1.981945    1.357553    0.000000
     12          1           0        1.840828   -0.168787    0.877830
     13          1           0        1.840828   -0.168787   -0.877830
 ---------------------------------------------------------------------
 Rotational constants (GHZ):           8.5745558           4.1856465           2.8621390
 General basis read from cards:  (5D, 7F)
 There are   201 symmetry adapted cartesian basis functions of A'  symmetry.
 There are    94 symmetry adapted cartesian basis functions of A"  symmetry.
 There are   174 symmetry adapted basis functions of A'  symmetry.
 There are    88 symmetry adapted basis functions of A"  symmetry.
   262 basis functions,   399 primitive gaussians,   295 cartesian basis functions
    19 alpha electrons       19 beta electrons
       nuclear repulsion energy       160.7018557119 Hartrees.
 NAtoms=   13 NActive=   13 NUniq=   12 SFac= 1.17D+00 NAtFMM=   60 NAOKFM=F Big=F
 Integral buffers will be    131072 words long.
 Raffenetti 2 integral format.
 Two-electron integral symmetry is turned on.
 One-electron integrals computed using PRISM.
 NBasis=   262 RedAO= T EigKep=  1.15D-04  NBF=   174    88
 NBsUse=   262 1.00D-06 EigRej= -1.00D+00 NBFU=   174    88
 ExpMin= 7.42D-02 ExpMax= 7.32D+03 ExpMxC= 2.50D+02 IAcc=3 IRadAn=         5 AccDes= 0.00D+00
 Harris functional with IExCor=  402 and IRadAn=       5 diagonalized for initial guess.
 HarFok:  IExCor=  402 AccDes= 0.00D+00 IRadAn=         5 IDoV= 1 UseB2=F ITyADJ=14
 ICtDFT=  3500011 ScaDFX=  1.000000  1.000000  1.000000  1.000000
 FoFCou: FMM=F IPFlag=           0 FMFlag=      100000 FMFlg1=           0
         NFxFlg=           0 DoJE=T BraDBF=F KetDBF=T FulRan=T
         wScrn=  0.000000 ICntrl=       500 IOpCl=  0 I1Cent=   200000004 NGrid=           0
         NMat0=    1 NMatS0=      1 NMatT0=    0 NMatD0=    1 NMtDS0=    0 NMtDT0=    0
 Petite list used in FoFCou.
 Initial guess orbital symmetries:
       Occupied  (A') (A') (A') (A') (A') (A') (A') (A') (A') (A')
                 (A') (A') (A") (A') (A') (A') (A') (A") (A")
       Virtual   (A") (A") (A') (A') (A') (A') (A') (A") (A') (A')
                 (A') (A') (A") (A') (A") (A') (A') (A') (A') (A")
                 (A') (A") (A') (A') (A") (A') (A") (A') (A') (A')
                 (A') (A') (A') (A') (A') (A') (A') (A') (A') (A')
                 (A') (A") (A') (A") (A") (A") (A') (A") (A') (A')
                 (A") (A') (A') (A") (A') (A") (A') (A') (A") (A')
                 (A") (A') (A') (A') (A") (A') (A') (A') (A") (A')
                 (A") (A') (A") (A") (A') (A') (A") (A') (A") (A")
                 (A') (A') (A") (A') (A') (A') (A") (A') (A") (A')
                 (A") (A') (A') (A') (A') (A') (A") (A') (A') (A')
                 (A") (A') (A') (A') (A') (A') (A') (A') (A') (A')
                 (A') (A") (A') (A') (A') (A') (A') (A") (A") (A")
                 (A") (A') (A') (A') (A") (A") (A") (A') (A") (A')
                 (A") (A') (A") (A') (A') (A') (A") (A') (A') (A')
                 (A") (A') (A') (A') (A") (A") (A') (A') (A") (A")
                 (A") (A') (A") (A') (A") (A') (A") (A") (A') (A")
                 (A') (A') (A') (A") (A') (A") (A') (A") (A') (A')
                 (A') (A') (A") (A") (A") (A") (A') (A') (A") (A')
                 (A") (A') (A") (A') (A") (A") (A') (A') (A") (A")
                 (A') (A') (A") (A') (A") (A') (A') (A') (A") (A")
                 (A') (A") (A') (A') (A') (A') (A") (A') (A") (A')
                 (A') (A') (A") (A') (A') (A') (A') (A") (A') (A')
                 (A") (A') (A") (A') (A') (A") (A") (A") (A') (A')
                 (A') (A') (A') (A') (A') (A") (A') (A') (A') (A')
                 (A') (A') (A')
 The electronic state of the initial guess is 1-A'.
 Requested convergence on RMS density matrix=1.00D-08 within 128 cycles.
 Requested convergence on MAX density matrix=1.00D-06.
 Requested convergence on             energy=1.00D-06.
 No special actions if energy rises.
 Integral accuracy reduced to 1.0D-05 until final iterations.
 Initial convergence to 1.0D-05 achieved.  Increase integral accuracy.
 SCF Done:  E(RB3LYP) =  -195.393169055     A.U. after   12 cycles
            NFock= 12  Conv=0.83D-08     -V/T= 2.0043

 **********************************************************************

            Population analysis using the SCF Density.

 **********************************************************************

 Orbital symmetries:
       Occupied  (A') (A') (A') (A') (A') (A') (A') (A') (A') (A')
                 (A') (A') (A") (A') (A') (A') (A') (A") (A")
       Virtual   (A") (A') (A') (A') (A") (A') (A') (A") (A') (A')
                 (A') (A') (A") (A') (A") (A') (A') (A') (A") (A')
                 (A') (A") (A') (A") (A') (A') (A') (A") (A') (A')
                 (A') (A') (A') (A') (A') (A') (A') (A') (A') (A')
                 (A') (A') (A") (A") (A") (A") (A') (A") (A') (A')
                 (A") (A') (A') (A") (A') (A") (A') (A') (A") (A')
                 (A') (A") (A') (A') (A") (A') (A') (A') (A') (A")
                 (A") (A') (A") (A') (A") (A') (A") (A') (A") (A")
                 (A') (A') (A") (A') (A') (A') (A') (A") (A") (A')
                 (A") (A') (A') (A') (A') (A') (A") (A') (A') (A')
                 (A") (A') (A') (A') (A') (A') (A') (A') (A') (A')
                 (A') (A') (A") (A') (A') (A') (A') (A") (A") (A")
                 (A") (A') (A') (A") (A') (A") (A") (A") (A') (A")
                 (A') (A') (A") (A') (A') (A") (A') (A') (A') (A')
                 (A") (A') (A') (A") (A') (A") (A') (A") (A") (A')
                 (A") (A') (A") (A') (A") (A') (A") (A") (A') (A")
                 (A') (A') (A') (A') (A") (A') (A") (A') (A") (A')
                 (A') (A') (A") (A") (A") (A") (A') (A') (A") (A")
                 (A') (A') (A") (A') (A") (A") (A') (A") (A') (A")
                 (A') (A') (A") (A') (A") (A') (A') (A') (A") (A")
                 (A') (A") (A') (A') (A') (A') (A") (A") (A') (A')
                 (A') (A") (A') (A') (A') (A') (A") (A') (A') (A')
                 (A") (A") (A') (A') (A') (A") (A") (A") (A') (A')
                 (A') (A') (A') (A') (A') (A") (A') (A') (A') (A')
                 (A') (A') (A')
 The electronic state is 1-A'.
 Alpha  occ. eigenvalues --  -10.18763 -10.17837 -10.16918 -10.16885 -10.16646
 Alpha  occ. eigenvalues --   -0.82607  -0.74635  -0.69523  -0.60550  -0.52713
 Alpha  occ. eigenvalues --   -0.48105  -0.46455  -0.42371  -0.40580  -0.39031
 Alpha  occ. eigenvalues --   -0.37601  -0.34432  -0.31484  -0.24002
 Alpha virt. eigenvalues --   -0.03854   0.01861   0.03852   0.04258   0.05188
 Alpha virt. eigenvalues --    0.06655   0.07567   0.08630   0.10147   0.11030
 Alpha virt. eigenvalues --    0.12876   0.16235   0.16605   0.17450   0.18448
 Alpha virt. eigenvalues --    0.22686   0.23974   0.25295   0.25735   0.26391
 Alpha virt. eigenvalues --    0.27565   0.27763   0.29601   0.30477   0.32517
 Alpha virt. eigenvalues --    0.32842   0.33744   0.35598   0.35815   0.36225
 Alpha virt. eigenvalues --    0.38060   0.39648   0.41033   0.41828   0.44782
 Alpha virt. eigenvalues --    0.50052   0.51502   0.52971   0.57296   0.59075
 Alpha virt. eigenvalues --    0.61947   0.62075   0.63986   0.67391   0.71395
 Alpha virt. eigenvalues --    0.76297   0.81216   0.84613   0.86844   0.92156
 Alpha virt. eigenvalues --    0.92365   0.92783   0.95465   0.96792   0.99543
 Alpha virt. eigenvalues --    0.99841   1.01988   1.03387   1.04852   1.05569
 Alpha virt. eigenvalues --    1.08835   1.09356   1.09956   1.12211   1.14037
 Alpha virt. eigenvalues --    1.15122   1.17174   1.20248   1.20804   1.21598
 Alpha virt. eigenvalues --    1.24678   1.26348   1.27922   1.32569   1.33853
 Alpha virt. eigenvalues --    1.34007   1.37511   1.39637   1.41072   1.43460
 Alpha virt. eigenvalues --    1.45908   1.51505   1.52176   1.52455   1.54788
 Alpha virt. eigenvalues --    1.59994   1.60856   1.61349   1.65479   1.68015
 Alpha virt. eigenvalues --    1.72840   1.73142   1.73457   1.78759   1.80111
 Alpha virt. eigenvalues --    1.82256   1.86161   1.88971   1.91256   1.92585
 Alpha virt. eigenvalues --    1.95279   1.97674   2.03669   2.04962   2.13604
 Alpha virt. eigenvalues --    2.15541   2.24389   2.28768   2.32933   2.40039
 Alpha virt. eigenvalues --    2.46610   2.54917   2.54951   2.66774   2.68922
 Alpha virt. eigenvalues --    2.80155   2.89880   2.93930   3.00684   3.12603
 Alpha virt. eigenvalues --    3.16878   3.18614   3.21655   3.25773   3.25920
 Alpha virt. eigenvalues --    3.28668   3.34042   3.37711   3.37752   3.40171
 Alpha virt. eigenvalues --    3.40236   3.48329   3.50604   3.56006   3.58064
 Alpha virt. eigenvalues --    3.60318   3.60374   3.63630   3.68130   3.72431
 Alpha virt. eigenvalues --    3.74009   3.77730   3.83186   3.84647   3.85339
 Alpha virt. eigenvalues --    3.85613   3.91025   3.95408   3.97259   3.97433
 Alpha virt. eigenvalues --    4.00061   4.01746   4.03839   4.05549   4.08562
 Alpha virt. eigenvalues --    4.11047   4.13588   4.14512   4.15850   4.18233
 Alpha virt. eigenvalues --    4.18711   4.22174   4.25412   4.27348   4.29146
 Alpha virt. eigenvalues --    4.29894   4.31447   4.32080   4.32230   4.33495
 Alpha virt. eigenvalues --    4.34050   4.37787   4.39058   4.39863   4.41319
 Alpha virt. eigenvalues --    4.44923   4.45890   4.47827   4.49471   4.49925
 Alpha virt. eigenvalues --    4.50762   4.52630   4.54029   4.55591   4.56821
 Alpha virt. eigenvalues --    4.59905   4.63343   4.64884   4.66352   4.68558
 Alpha virt. eigenvalues --    4.69469   4.73995   4.75854   4.78561   4.82052
 Alpha virt. eigenvalues --    4.83171   4.86338   4.92238   4.92488   4.94945
 Alpha virt. eigenvalues --    4.99385   5.03885   5.04871   5.12057   5.15034
 Alpha virt. eigenvalues --    5.17597   5.22256   5.28890   5.31450   5.32239
 Alpha virt. eigenvalues --    5.33983   5.38781   5.38861   5.41844   5.42836
 Alpha virt. eigenvalues --    5.44424   5.53127   5.53636   5.58833   5.66807
 Alpha virt. eigenvalues --    5.67099   5.71424   5.71550   5.73563   5.79619
 Alpha virt. eigenvalues --    5.79697   5.84171   5.86000   5.87605   5.89051
 Alpha virt. eigenvalues --    5.90519   5.99691   6.02819   6.04778   6.05684
 Alpha virt. eigenvalues --    6.14725   6.21203   6.24443   6.25962   6.38767
 Alpha virt. eigenvalues --    6.54624   6.94775   7.59488
          Condensed to atoms (all electrons):
               1          2          3          4          5          6
     1  C    4.822260   0.612280  -0.096425  -0.004346  -0.053329   0.443745
     2  C    0.612280   4.934476   0.376683  -0.083734   0.305726  -0.053979
     3  C   -0.096425   0.376683   4.865830   0.623982  -0.064175  -0.009257
     4  C   -0.004346  -0.083734   0.623982   4.748617  -0.011787   0.001182
     5  C   -0.053329   0.305726  -0.064175  -0.011787   4.626771   0.006876
     6  H    0.443745  -0.053979  -0.009257   0.001182   0.006876   0.598834
     7  H    0.429670  -0.037967   0.009120  -0.001112  -0.010265  -0.030727
     8  H   -0.005691  -0.055314   0.450130  -0.033212   0.007099   0.001758
     9  H   -0.000022  -0.012889  -0.049167   0.437436   0.005338   0.000032
    10  H   -0.000892   0.009295  -0.034828   0.430960  -0.001400  -0.000102
    11  H   -0.007370  -0.032031   0.007144   0.001260   0.422990   0.000335
    12  H   -0.003137  -0.052943   0.001232  -0.002302   0.440031  -0.000488
    13  H   -0.003137  -0.052943   0.001232  -0.002302   0.440031  -0.000488
               7          8          9         10         11         12
     1  C    0.429670  -0.005691  -0.000022  -0.000892  -0.007370  -0.003137
     2  C   -0.037967  -0.055314  -0.012889   0.009295  -0.032031  -0.052943
     3  C    0.009120   0.450130  -0.049167  -0.034828   0.007144   0.001232
     4  C   -0.001112  -0.033212   0.437436   0.430960   0.001260  -0.002302
     5  C   -0.010265   0.007099   0.005338  -0.001400   0.422990   0.440031
     6  H   -0.030727   0.001758   0.000032  -0.000102   0.000335  -0.000488
     7  H    0.599489   0.000257  -0.000074   0.000051   0.002348   0.000178
     8  H    0.000257   0.627130   0.007271  -0.009902  -0.000324  -0.000009
     9  H   -0.000074   0.007271   0.600783  -0.031333   0.000591  -0.002498
    10  H    0.000051  -0.009902  -0.031333   0.591842   0.000037   0.000101
    11  H    0.002348  -0.000324   0.000591   0.000037   0.616987  -0.020230
    12  H    0.000178  -0.000009  -0.002498   0.000101  -0.020230   0.642887
    13  H    0.000178  -0.000009  -0.002498   0.000101  -0.020230  -0.041212
              13
     1  C   -0.003137
     2  C   -0.052943
     3  C    0.001232
     4  C   -0.002302
     5  C    0.440031
     6  H   -0.000488
     7  H    0.000178
     8  H   -0.000009
     9  H   -0.002498
    10  H    0.000101
    11  H   -0.020230
    12  H   -0.041212
    13  H    0.642887
 Mulliken charges:
               1
     1  C   -0.133606
     2  C    0.143338
     3  C   -0.081502
     4  C   -0.104643
     5  C   -0.113905
     6  H    0.042279
     7  H    0.038852
     8  H    0.010817
     9  H    0.047029
    10  H    0.046071
    11  H    0.028492
    12  H    0.038389
    13  H    0.038389
 Sum of Mulliken charges =  -0.00000
 Mulliken charges with hydrogens summed into heavy atoms:
               1
     1  C   -0.052476
     2  C    0.143338
     3  C   -0.070685
     4  C   -0.011543
     5  C   -0.008635
 Electronic spatial extent (au):  <R**2>=            469.7073
 Charge=             -0.0000 electrons
 Dipole moment (field-independent basis, Debye):
    X=              0.2862    Y=              0.0100    Z=              0.0000  Tot=              0.2864
 Quadrupole moment (field-independent basis, Debye-Ang):
   XX=            -30.0597   YY=            -30.7407   ZZ=            -35.4683
   XY=              0.0983   XZ=              0.0000   YZ=             -0.0000
 Traceless Quadrupole moment (field-independent basis, Debye-Ang):
   XX=              2.0298   YY=              1.3489   ZZ=             -3.3787
   XY=              0.0983   XZ=              0.0000   YZ=             -0.0000
 Octapole moment (field-independent basis, Debye-Ang**2):
  XXX=             -2.9575  YYY=              0.0790  ZZZ=             -0.0000  XYY=              0.3344
  XXY=             -0.1306  XXZ=              0.0000  XZZ=              2.6769  YZZ=              0.0669
  YYZ=             -0.0000  XYZ=              0.0000
 Hexadecapole moment (field-independent basis, Debye-Ang**3):
 XXXX=           -223.2604 YYYY=           -371.3978 ZZZZ=            -50.6587 XXXY=            -16.9613
 XXXZ=              0.0000 YYYX=             -8.3051 YYYZ=             -0.0000 ZZZX=              0.0000
 ZZZY=              0.0000 XXYY=            -96.9360 XXZZ=            -47.6230 YYZZ=            -83.7318
 XXYZ=             -0.0000 YYXZ=             -0.0000 ZZXY=             -6.6415
 N-N= 1.607018557119D+02 E-N=-7.737902995917D+02  KE= 1.945599091475D+02
 Symmetry A'   KE= 1.883482095638D+02
 Symmetry A"   KE= 6.211699583699D+00
 Calling FoFJK, ICntrl=      2127 FMM=F ISym2X=1 I1Cent= 0 IOpClX= 0 NMat=1 NMatS=1 NMatT=0.
 ***** Axes restored to original set *****
 -------------------------------------------------------------------
 Center     Atomic                   Forces (Hartrees/Bohr)
 Number     Number              X              Y              Z
 -------------------------------------------------------------------
      1        6          -0.000062018    0.000058551   -0.000000000
      2        6           0.000051663   -0.000015568   -0.000000000
      3        6          -0.000048527    0.000062338    0.000000000
      4        6           0.000067483   -0.000084545    0.000000000
      5        6           0.000008800   -0.000025062   -0.000000000
      6        1          -0.000000765   -0.000041968    0.000000000
      7        1           0.000040695   -0.000008023    0.000000000
      8        1          -0.000005472   -0.000012981   -0.000000000
      9        1           0.000004749    0.000027642    0.000000000
     10        1          -0.000040460    0.000014134   -0.000000000
     11        1           0.000004643    0.000028824   -0.000000000
     12        1          -0.000010395   -0.000001670    0.000013703
     13        1          -0.000010395   -0.000001670   -0.000013703
 -------------------------------------------------------------------
 Cartesian Forces:  Max     0.000084545 RMS     0.000030629

 GradGradGradGradGradGradGradGradGradGradGradGradGradGradGradGradGradGrad
 Berny optimization.
 FormGI is forming the generalized inverse of G from B-inverse, IUseBI=4.
 Internal  Forces:  Max     0.000054971 RMS     0.000017770
 Search for a local minimum.
 Step number   1 out of a maximum of   58
 All quantities printed in internal units (Hartrees-Bohrs-Radians)
 Mixed Optimization -- En-DIIS/RFO-DIIS
 Second derivative matrix not updated -- first step.
 ITU=  0
     Eigenvalues ---    0.00707   0.01240   0.01497   0.02127   0.02903
     Eigenvalues ---    0.02903   0.02961   0.02961   0.07156   0.07217
     Eigenvalues ---    0.16000   0.16000   0.16000   0.16000   0.16000
     Eigenvalues ---    0.16000   0.16000   0.16000   0.22000   0.25000
     Eigenvalues ---    0.25000   0.31912   0.34573   0.34573   0.35024
     Eigenvalues ---    0.35367   0.35727   0.35812   0.35816   0.35883
     Eigenvalues ---    0.36447   0.57560   0.58553
 RFO step:  Lambda=-7.41991427D-08 EMin= 7.06651046D-03
 Linear search not attempted -- first point.
 Iteration  1 RMS(Cart)=  0.00010807 RMS(Int)=  0.00000001
 Iteration  2 RMS(Cart)=  0.00000001 RMS(Int)=  0.00000000
 ClnCor:  largest displacement from symmetrization is 2.65D-12 for atom     9.
 Variable       Old X    -DE/DX   Delta X   Delta X   Delta X     New X
                                 (Linear)    (Quad)   (Total)
    R1        2.52925   0.00002   0.00000   0.00003   0.00003   2.52928
    R2        2.04511  -0.00000   0.00000  -0.00001  -0.00001   2.04510
    R3        2.04370   0.00002   0.00000   0.00004   0.00004   2.04375
    R4        2.76689   0.00001   0.00000   0.00002   0.00002   2.76691
    R5        2.84306  -0.00001   0.00000  -0.00002  -0.00002   2.84304
    R6        2.52104   0.00005   0.00000   0.00009   0.00009   2.52112
    R7        2.05084   0.00000   0.00000   0.00001   0.00001   2.05085
    R8        2.04377  -0.00000   0.00000  -0.00001  -0.00001   2.04376
    R9        2.04265   0.00001   0.00000   0.00004   0.00004   2.04269
   R10        2.05636   0.00003   0.00000   0.00008   0.00008   2.05644
   R11        2.06373   0.00001   0.00000   0.00003   0.00003   2.06376
   R12        2.06373   0.00001   0.00000   0.00003   0.00003   2.06376
    A1        2.11801  -0.00003   0.00000  -0.00019  -0.00019   2.11782
    A2        2.12534  -0.00003   0.00000  -0.00016  -0.00016   2.12519
    A3        2.03984   0.00005   0.00000   0.00034   0.00034   2.04018
    A4        2.08902  -0.00002   0.00000  -0.00010  -0.00010   2.08892
    A5        2.12138   0.00002   0.00000   0.00007   0.00007   2.12145
    A6        2.07279   0.00001   0.00000   0.00002   0.00002   2.07282
    A7        2.20177  -0.00002   0.00000  -0.00007  -0.00007   2.20170
    A8        2.01034   0.00002   0.00000   0.00012   0.00012   2.01046
    A9        2.07108  -0.00001   0.00000  -0.00005  -0.00005   2.07103
   A10        2.13628  -0.00001   0.00000  -0.00006  -0.00006   2.13621
   A11        2.11324  -0.00004   0.00000  -0.00023  -0.00023   2.11301
   A12        2.03367   0.00005   0.00000   0.00029   0.00029   2.03396
   A13        1.93804  -0.00001   0.00000  -0.00004  -0.00004   1.93800
   A14        1.93902  -0.00001   0.00000  -0.00009  -0.00009   1.93893
   A15        1.93902  -0.00001   0.00000  -0.00009  -0.00009   1.93893
   A16        1.88893   0.00001   0.00000   0.00006   0.00006   1.88899
   A17        1.88893   0.00001   0.00000   0.00006   0.00006   1.88899
   A18        1.86736   0.00002   0.00000   0.00012   0.00012   1.86748
    D1        0.00000  -0.00000   0.00000  -0.00000   0.00000   0.00000
    D2        3.14159   0.00000   0.00000   0.00000   0.00000   3.14159
    D3        3.14159  -0.00000   0.00000  -0.00000   0.00000   3.14159
    D4        0.00000   0.00000   0.00000   0.00000   0.00000   0.00000
    D5        3.14159   0.00000   0.00000   0.00000   0.00000   3.14159
    D6        0.00000   0.00000   0.00000   0.00000   0.00000   0.00000
    D7        0.00000  -0.00000   0.00000  -0.00000   0.00000   0.00000
    D8        3.14159  -0.00000   0.00000  -0.00000   0.00000   3.14159
    D9        0.00000   0.00000   0.00000  -0.00000   0.00000   0.00000
   D10        2.10325  -0.00000   0.00000  -0.00002  -0.00002   2.10323
   D11       -2.10325   0.00000   0.00000   0.00002   0.00002  -2.10323
   D12        3.14159   0.00000   0.00000   0.00000   0.00000   3.14159
   D13       -1.03835  -0.00000   0.00000  -0.00002  -0.00002  -1.03836
   D14        1.03835   0.00000   0.00000   0.00002   0.00002   1.03836
   D15        0.00000  -0.00000   0.00000  -0.00000   0.00000   0.00000
   D16        3.14159  -0.00000   0.00000  -0.00000   0.00000   3.14159
   D17        3.14159   0.00000   0.00000   0.00000   0.00000   3.14159
   D18        0.00000   0.00000   0.00000   0.00000   0.00000   0.00000
         Item               Value     Threshold  Converged?
 Maximum Force            0.000055     0.000450     YES
 RMS     Force            0.000018     0.000300     YES
 Maximum Displacement     0.000486     0.001800     YES
 RMS     Displacement     0.000108     0.001200     YES
 Predicted change in Energy=-3.709957D-08
 Optimization completed.
    -- Stationary point found.
                           ----------------------------
                           !   Optimized Parameters   !
                           ! (Angstroms and Degrees)  !
 --------------------------                            --------------------------
 ! Name  Definition              Value          Derivative Info.                !
 --------------------------------------------------------------------------------
 ! R1    R(1,2)                  1.3384         -DE/DX =    0.0                 !
 ! R2    R(1,6)                  1.0822         -DE/DX =    0.0                 !
 ! R3    R(1,7)                  1.0815         -DE/DX =    0.0                 !
 ! R4    R(2,3)                  1.4642         -DE/DX =    0.0                 !
 ! R5    R(2,5)                  1.5045         -DE/DX =    0.0                 !
 ! R6    R(3,4)                  1.3341         -DE/DX =    0.0001              !
 ! R7    R(3,8)                  1.0853         -DE/DX =    0.0                 !
 ! R8    R(4,9)                  1.0815         -DE/DX =    0.0                 !
 ! R9    R(4,10)                 1.0809         -DE/DX =    0.0                 !
 ! R10   R(5,11)                 1.0882         -DE/DX =    0.0                 !
 ! R11   R(5,12)                 1.0921         -DE/DX =    0.0                 !
 ! R12   R(5,13)                 1.0921         -DE/DX =    0.0                 !
 ! A1    A(2,1,6)              121.3529         -DE/DX =    0.0                 !
 ! A2    A(2,1,7)              121.7732         -DE/DX =    0.0                 !
 ! A3    A(6,1,7)              116.874          -DE/DX =    0.0001              !
 ! A4    A(1,2,3)              119.6918         -DE/DX =    0.0                 !
 ! A5    A(1,2,5)              121.546          -DE/DX =    0.0                 !
 ! A6    A(3,2,5)              118.7622         -DE/DX =    0.0                 !
 ! A7    A(2,3,4)              126.1518         -DE/DX =    0.0                 !
 ! A8    A(2,3,8)              115.1839         -DE/DX =    0.0                 !
 ! A9    A(4,3,8)              118.6642         -DE/DX =    0.0                 !
 ! A10   A(3,4,9)              122.3996         -DE/DX =    0.0                 !
 ! A11   A(3,4,10)             121.0798         -DE/DX =    0.0                 !
 ! A12   A(9,4,10)             116.5207         -DE/DX =    0.0                 !
 ! A13   A(2,5,11)             111.0415         -DE/DX =    0.0                 !
 ! A14   A(2,5,12)             111.0976         -DE/DX =    0.0                 !
 ! A15   A(2,5,13)             111.0976         -DE/DX =    0.0                 !
 ! A16   A(11,5,12)            108.2278         -DE/DX =    0.0                 !
 ! A17   A(11,5,13)            108.2278         -DE/DX =    0.0                 !
 ! A18   A(12,5,13)            106.9918         -DE/DX =    0.0                 !
 ! D1    D(6,1,2,3)              0.0            -DE/DX =    0.0                 !
 ! D2    D(6,1,2,5)            180.0            -DE/DX =    0.0                 !
 ! D3    D(7,1,2,3)            180.0            -DE/DX =    0.0                 !
 ! D4    D(7,1,2,5)              0.0            -DE/DX =    0.0                 !
 ! D5    D(1,2,3,4)            180.0            -DE/DX =    0.0                 !
 ! D6    D(1,2,3,8)              0.0            -DE/DX =    0.0                 !
 ! D7    D(5,2,3,4)              0.0            -DE/DX =    0.0                 !
 ! D8    D(5,2,3,8)            180.0            -DE/DX =    0.0                 !
 ! D9    D(1,2,5,11)             0.0            -DE/DX =    0.0                 !
 ! D10   D(1,2,5,12)           120.5071         -DE/DX =    0.0                 !
 ! D11   D(1,2,5,13)          -120.5071         -DE/DX =    0.0                 !
 ! D12   D(3,2,5,11)           180.0            -DE/DX =    0.0                 !
 ! D13   D(3,2,5,12)           -59.4929         -DE/DX =    0.0                 !
 ! D14   D(3,2,5,13)            59.4929         -DE/DX =    0.0                 !
 ! D15   D(2,3,4,9)              0.0            -DE/DX =    0.0                 !
 ! D16   D(2,3,4,10)           180.0            -DE/DX =    0.0                 !
 ! D17   D(8,3,4,9)            180.0            -DE/DX =    0.0                 !
 ! D18   D(8,3,4,10)             0.0            -DE/DX =    0.0                 !
 --------------------------------------------------------------------------------
 GradGradGradGradGradGradGradGradGradGradGradGradGradGradGradGradGradGrad

                          Input orientation:                          
 ---------------------------------------------------------------------
 Center     Atomic      Atomic             Coordinates (Angstroms)
 Number     Number       Type             X           Y           Z
 ---------------------------------------------------------------------
      1          6           0       -0.590379    1.724998    0.000000
      2          6           0        0.000000    0.523821    0.000000
      3          6           0       -0.821594   -0.688115    0.000000
      4          6           0       -0.371575   -1.943997    0.000000
      5          6           0        1.497875    0.382972    0.000000
      6          1           0       -1.668189    1.822683    0.000000
      7          1           0       -0.016438    2.641619    0.000000
      8          1           0       -1.893636   -0.519276    0.000000
      9          1           0        0.683541   -2.181497    0.000000
     10          1           0       -1.054839   -2.781578    0.000000
     11          1           0        1.981945    1.357553    0.000000
     12          1           0        1.840828   -0.168787    0.877830
     13          1           0        1.840828   -0.168787   -0.877830
 ---------------------------------------------------------------------
                    Distance matrix (angstroms):
                    1          2          3          4          5
     1  C    0.000000
     2  C    1.338422   0.000000
     3  C    2.424165   1.464174   0.000000
     4  C    3.675514   2.495635   1.334075   0.000000
     5  C    2.482305   1.504483   2.554831   2.984900   0.000000
     6  H    1.082228   2.114213   2.649685   3.983602   3.478035
     7  H    1.081482   2.117862   3.425698   4.599347   2.719307
     8  H    2.595235   2.161922   1.085256   2.084826   3.509473
     9  H    4.108963   2.790336   2.120288   1.081516   2.690658
    10  H    4.530447   3.469632   2.106417   1.080922   4.065799
    11  H    2.598435   2.150166   3.470531   4.054539   1.088178
    12  H    3.204337   2.153820   2.851101   2.969290   1.092081
    13  H    3.204337   2.153820   2.851101   2.969290   1.092081
                    6          7          8          9         10
     6  H    0.000000
     7  H    1.843621   0.000000
     8  H    2.352785   3.676293   0.000000
     9  H    4.643715   4.873645   3.066728   0.000000
    10  H    4.644935   5.521716   2.412797   1.839038   0.000000
    11  H    3.679650   2.375365   4.306114   3.769712   5.133660
    12  H    4.129133   3.481150   3.852227   2.482116   3.997768
    13  H    4.129133   3.481150   3.852227   2.482116   3.997768
                   11         12         13
    11  H    0.000000
    12  H    1.766413   0.000000
    13  H    1.766413   1.755660   0.000000
 Stoichiometry    C5H8
 Framework group  CS[SG(C5H6),X(H2)]
 Deg. of freedom    22
 Full point group                 CS      NOp   2
 Largest Abelian subgroup         CS      NOp   2
 Largest concise Abelian subgroup CS      NOp   2
                         Standard orientation:                         
 ---------------------------------------------------------------------
 Center     Atomic      Atomic             Coordinates (Angstroms)
 Number     Number       Type             X           Y           Z
 ---------------------------------------------------------------------
      1          6           0       -0.590379    1.724998    0.000000
      2          6           0        0.000000    0.523821    0.000000
      3          6           0       -0.821594   -0.688115    0.000000
      4          6           0       -0.371575   -1.943997    0.000000
      5          6           0        1.497875    0.382972    0.000000
      6          1           0       -1.668189    1.822683    0.000000
      7          1           0       -0.016438    2.641619    0.000000
      8          1           0       -1.893636   -0.519276    0.000000
      9          1           0        0.683541   -2.181497    0.000000
     10          1           0       -1.054839   -2.781578    0.000000
     11          1           0        1.981945    1.357553    0.000000
     12          1           0        1.840828   -0.168787    0.877830
     13          1           0        1.840828   -0.168787   -0.877830
 ---------------------------------------------------------------------
 Rotational constants (GHZ):           8.5745558           4.1856465           2.8621390
 1\1\GINC-GAMBA\FOpt\RB3LYP\Gen\C5H8\IRIKURA\29-Sep-2023\0\\# b3lyp/gen
  opt freq CPHF(Grid=OneStep)\\2-methyl-1,3-butadiene, B3LYP/pcseg-2\\0
 ,1\C,-0.590379,1.724998,0.\C,0.,0.523821,0.\C,-0.821594,-0.688115,0.\C
 ,-0.371575,-1.943997,0.\C,1.497875,0.382972,0.\H,-1.668189,1.822683,0.
 \H,-0.016438,2.641619,0.\H,-1.893636,-0.519276,0.\H,0.683541,-2.181497
 ,0.\H,-1.054839,-2.781578,0.\H,1.981945,1.357553,0.\H,1.840828,-0.1687
 87,0.87783\H,1.840828,-0.168787,-0.87783\\Version=ES64L-G16RevB.01\Sta
 te=1-A'\HF=-195.3931691\RMSD=8.341e-09\RMSF=3.063e-05\Dipole=0.1125989
 ,0.0039385,0.\Quadrupole=1.5091174,1.0028719,-2.5119893,0.0730588,0.,0
 .\PG=CS [SG(C5H6),X(H2)]\\@


 THE CAUTIOUS SELDOM ERR...CONFUCIUS                   
 Job cpu time:       0 days  0 hours  4 minutes 16.9 seconds.
 Elapsed time:       0 days  0 hours  1 minutes  4.3 seconds.
 File lengths (MBytes):  RWF=     44 Int=      0 D2E=      0 Chk=      6 Scr=      1
 Normal termination of Gaussian 16 at Fri Sep 29 14:27:36 2023.
 Link1:  Proceeding to internal job step number  2.
 ------------------------------------------------------------------
 #N Geom=AllCheck Guess=TCheck SCRF=Check GenChk RB3LYP/ChkBas Freq
 ------------------------------------------------------------------
 1/10=4,29=7,30=1,38=1,40=1/1,3;
 2/12=2,40=1/2;
 3/5=7,6=2,11=2,14=-4,25=1,30=1,67=1,70=2,71=2,74=-5,82=7,116=1,140=1/1,2,3;
 4/5=101/1;
 5/5=2,38=6,98=1/2;
 8/6=4,10=90,11=11/1;
 11/6=1,8=1,9=11,15=111,16=1/1,2,10;
 10/6=1,60=-420/2;
 6/7=2,8=2,9=2,10=2,28=1/1;
 7/8=1,10=1,25=1/1,2,3,16;
 1/10=4,30=1/3;
 99//99;
 Structure from the checkpoint file:  "isoprene.chk"
 -------------------------------------
 2-methyl-1,3-butadiene, B3LYP/pcseg-2
 -------------------------------------
 Charge =  0 Multiplicity = 1
 Redundant internal coordinates found in file.  (old form).
 C,0,-0.590379,1.724998,0.
 C,0,0.,0.523821,0.
 C,0,-0.821594,-0.688115,0.
 C,0,-0.371575,-1.943997,0.
 C,0,1.497875,0.382972,0.
 H,0,-1.668189,1.822683,0.
 H,0,-0.016438,2.641619,0.
 H,0,-1.893636,-0.519276,0.
 H,0,0.683541,-2.181497,0.
 H,0,-1.054839,-2.781578,0.
 H,0,1.981945,1.357553,0.
 H,0,1.840828,-0.168787,0.87783
 H,0,1.840828,-0.168787,-0.87783
 Recover connectivity data from disk.

 GradGradGradGradGradGradGradGradGradGradGradGradGradGradGradGradGradGrad
 Berny optimization.
 Initialization pass.
                           ----------------------------
                           !    Initial Parameters    !
                           ! (Angstroms and Degrees)  !
 --------------------------                            --------------------------
 ! Name  Definition              Value          Derivative Info.                !
 --------------------------------------------------------------------------------
 ! R1    R(1,2)                  1.3384         calculate D2E/DX2 analytically  !
 ! R2    R(1,6)                  1.0822         calculate D2E/DX2 analytically  !
 ! R3    R(1,7)                  1.0815         calculate D2E/DX2 analytically  !
 ! R4    R(2,3)                  1.4642         calculate D2E/DX2 analytically  !
 ! R5    R(2,5)                  1.5045         calculate D2E/DX2 analytically  !
 ! R6    R(3,4)                  1.3341         calculate D2E/DX2 analytically  !
 ! R7    R(3,8)                  1.0853         calculate D2E/DX2 analytically  !
 ! R8    R(4,9)                  1.0815         calculate D2E/DX2 analytically  !
 ! R9    R(4,10)                 1.0809         calculate D2E/DX2 analytically  !
 ! R10   R(5,11)                 1.0882         calculate D2E/DX2 analytically  !
 ! R11   R(5,12)                 1.0921         calculate D2E/DX2 analytically  !
 ! R12   R(5,13)                 1.0921         calculate D2E/DX2 analytically  !
 ! A1    A(2,1,6)              121.3529         calculate D2E/DX2 analytically  !
 ! A2    A(2,1,7)              121.7732         calculate D2E/DX2 analytically  !
 ! A3    A(6,1,7)              116.874          calculate D2E/DX2 analytically  !
 ! A4    A(1,2,3)              119.6918         calculate D2E/DX2 analytically  !
 ! A5    A(1,2,5)              121.546          calculate D2E/DX2 analytically  !
 ! A6    A(3,2,5)              118.7622         calculate D2E/DX2 analytically  !
 ! A7    A(2,3,4)              126.1518         calculate D2E/DX2 analytically  !
 ! A8    A(2,3,8)              115.1839         calculate D2E/DX2 analytically  !
 ! A9    A(4,3,8)              118.6642         calculate D2E/DX2 analytically  !
 ! A10   A(3,4,9)              122.3996         calculate D2E/DX2 analytically  !
 ! A11   A(3,4,10)             121.0798         calculate D2E/DX2 analytically  !
 ! A12   A(9,4,10)             116.5207         calculate D2E/DX2 analytically  !
 ! A13   A(2,5,11)             111.0415         calculate D2E/DX2 analytically  !
 ! A14   A(2,5,12)             111.0976         calculate D2E/DX2 analytically  !
 ! A15   A(2,5,13)             111.0976         calculate D2E/DX2 analytically  !
 ! A16   A(11,5,12)            108.2278         calculate D2E/DX2 analytically  !
 ! A17   A(11,5,13)            108.2278         calculate D2E/DX2 analytically  !
 ! A18   A(12,5,13)            106.9918         calculate D2E/DX2 analytically  !
 ! D1    D(6,1,2,3)              0.0            calculate D2E/DX2 analytically  !
 ! D2    D(6,1,2,5)            180.0            calculate D2E/DX2 analytically  !
 ! D3    D(7,1,2,3)            180.0            calculate D2E/DX2 analytically  !
 ! D4    D(7,1,2,5)              0.0            calculate D2E/DX2 analytically  !
 ! D5    D(1,2,3,4)            180.0            calculate D2E/DX2 analytically  !
 ! D6    D(1,2,3,8)              0.0            calculate D2E/DX2 analytically  !
 ! D7    D(5,2,3,4)              0.0            calculate D2E/DX2 analytically  !
 ! D8    D(5,2,3,8)            180.0            calculate D2E/DX2 analytically  !
 ! D9    D(1,2,5,11)             0.0            calculate D2E/DX2 analytically  !
 ! D10   D(1,2,5,12)           120.5071         calculate D2E/DX2 analytically  !
 ! D11   D(1,2,5,13)          -120.5071         calculate D2E/DX2 analytically  !
 ! D12   D(3,2,5,11)           180.0            calculate D2E/DX2 analytically  !
 ! D13   D(3,2,5,12)           -59.4929         calculate D2E/DX2 analytically  !
 ! D14   D(3,2,5,13)            59.4929         calculate D2E/DX2 analytically  !
 ! D15   D(2,3,4,9)              0.0            calculate D2E/DX2 analytically  !
 ! D16   D(2,3,4,10)           180.0            calculate D2E/DX2 analytically  !
 ! D17   D(8,3,4,9)            180.0            calculate D2E/DX2 analytically  !
 ! D18   D(8,3,4,10)             0.0            calculate D2E/DX2 analytically  !
 --------------------------------------------------------------------------------
 Trust Radius=3.00D-01 FncErr=1.00D-07 GrdErr=1.00D-07 EigMax=2.50D+02 EigMin=1.00D-04
 Number of steps in this run=      2 maximum allowed number of steps=      2.
 GradGradGradGradGradGradGradGradGradGradGradGradGradGradGradGradGradGrad

                          Input orientation:                          
 ---------------------------------------------------------------------
 Center     Atomic      Atomic             Coordinates (Angstroms)
 Number     Number       Type             X           Y           Z
 ---------------------------------------------------------------------
      1          6           0       -0.590379    1.724998    0.000000
      2          6           0        0.000000    0.523821    0.000000
      3          6           0       -0.821594   -0.688115    0.000000
      4          6           0       -0.371575   -1.943997    0.000000
      5          6           0        1.497875    0.382972    0.000000
      6          1           0       -1.668189    1.822683    0.000000
      7          1           0       -0.016438    2.641619    0.000000
      8          1           0       -1.893636   -0.519276    0.000000
      9          1           0        0.683541   -2.181497    0.000000
     10          1           0       -1.054839   -2.781578    0.000000
     11          1           0        1.981945    1.357553    0.000000
     12          1           0        1.840828   -0.168787    0.877830
     13          1           0        1.840828   -0.168787   -0.877830
 ---------------------------------------------------------------------
                    Distance matrix (angstroms):
                    1          2          3          4          5
     1  C    0.000000
     2  C    1.338422   0.000000
     3  C    2.424165   1.464174   0.000000
     4  C    3.675514   2.495635   1.334075   0.000000
     5  C    2.482305   1.504483   2.554831   2.984900   0.000000
     6  H    1.082228   2.114213   2.649685   3.983602   3.478035
     7  H    1.081482   2.117862   3.425698   4.599347   2.719307
     8  H    2.595235   2.161922   1.085256   2.084826   3.509473
     9  H    4.108963   2.790336   2.120288   1.081516   2.690658
    10  H    4.530447   3.469632   2.106417   1.080922   4.065799
    11  H    2.598435   2.150166   3.470531   4.054539   1.088178
    12  H    3.204337   2.153820   2.851101   2.969290   1.092081
    13  H    3.204337   2.153820   2.851101   2.969290   1.092081
                    6          7          8          9         10
     6  H    0.000000
     7  H    1.843621   0.000000
     8  H    2.352785   3.676293   0.000000
     9  H    4.643715   4.873645   3.066728   0.000000
    10  H    4.644935   5.521716   2.412797   1.839038   0.000000
    11  H    3.679650   2.375365   4.306114   3.769712   5.133660
    12  H    4.129133   3.481150   3.852227   2.482116   3.997768
    13  H    4.129133   3.481150   3.852227   2.482116   3.997768
                   11         12         13
    11  H    0.000000
    12  H    1.766413   0.000000
    13  H    1.766413   1.755660   0.000000
 Stoichiometry    C5H8
 Framework group  CS[SG(C5H6),X(H2)]
 Deg. of freedom    22
 Full point group                 CS      NOp   2
 Largest Abelian subgroup         CS      NOp   2
 Largest concise Abelian subgroup CS      NOp   2
                         Standard orientation:                         
 ---------------------------------------------------------------------
 Center     Atomic      Atomic             Coordinates (Angstroms)
 Number     Number       Type             X           Y           Z
 ---------------------------------------------------------------------
      1          6           0       -0.590379    1.724998    0.000000
      2          6           0       -0.000000    0.523821    0.000000
      3          6           0       -0.821594   -0.688115    0.000000
      4          6           0       -0.371575   -1.943997    0.000000
      5          6           0        1.497875    0.382972    0.000000
      6          1           0       -1.668189    1.822683    0.000000
      7          1           0       -0.016438    2.641619    0.000000
      8          1           0       -1.893636   -0.519276    0.000000
      9          1           0        0.683541   -2.181497    0.000000
     10          1           0       -1.054839   -2.781578    0.000000
     11          1           0        1.981945    1.357553    0.000000
     12          1           0        1.840828   -0.168787    0.877830
     13          1           0        1.840828   -0.168787   -0.877830
 ---------------------------------------------------------------------
 Rotational constants (GHZ):           8.5745558           4.1856465           2.8621390
 Basis read from chk: "isoprene.chk" (5D, 7F)
 There are   201 symmetry adapted cartesian basis functions of A'  symmetry.
 There are    94 symmetry adapted cartesian basis functions of A"  symmetry.
 There are   174 symmetry adapted basis functions of A'  symmetry.
 There are    88 symmetry adapted basis functions of A"  symmetry.
   262 basis functions,   399 primitive gaussians,   295 cartesian basis functions
    19 alpha electrons       19 beta electrons
       nuclear repulsion energy       160.7018557119 Hartrees.
 NAtoms=   13 NActive=   13 NUniq=   12 SFac= 1.17D+00 NAtFMM=   60 NAOKFM=F Big=F
 Integral buffers will be    131072 words long.
 Raffenetti 2 integral format.
 Two-electron integral symmetry is turned on.
 One-electron integrals computed using PRISM.
 NBasis=   262 RedAO= T EigKep=  1.15D-04  NBF=   174    88
 NBsUse=   262 1.00D-06 EigRej= -1.00D+00 NBFU=   174    88
 Initial guess from the checkpoint file:  "isoprene.chk"
 B after Tr=    -0.000000    0.000000   -0.000000
         Rot=    1.000000   -0.000000    0.000000   -0.000000 Ang=   0.00 deg.
 Initial guess orbital symmetries:
       Occupied  (A') (A') (A') (A') (A') (A') (A') (A') (A') (A')
                 (A') (A') (A") (A') (A') (A') (A') (A") (A")
       Virtual   (A") (A') (A') (A') (A") (A') (A') (A") (A') (A')
                 (A') (A') (A") (A') (A") (A') (A') (A') (A") (A')
                 (A') (A") (A') (A") (A') (A') (A') (A") (A') (A')
                 (A') (A') (A') (A') (A') (A') (A') (A') (A') (A')
                 (A') (A') (A") (A") (A") (A") (A') (A") (A') (A')
                 (A") (A') (A') (A") (A') (A") (A') (A') (A") (A')
                 (A') (A") (A') (A') (A") (A') (A') (A') (A') (A")
                 (A") (A') (A") (A') (A") (A') (A") (A') (A") (A")
                 (A') (A') (A") (A') (A') (A') (A') (A") (A") (A')
                 (A") (A') (A') (A') (A') (A') (A") (A') (A') (A')
                 (A") (A') (A') (A') (A') (A') (A') (A') (A') (A')
                 (A') (A') (A") (A') (A') (A') (A') (A") (A") (A")
                 (A") (A') (A') (A") (A') (A") (A") (A") (A') (A")
                 (A') (A') (A") (A') (A') (A") (A') (A') (A') (A')
                 (A") (A') (A') (A") (A') (A") (A') (A") (A") (A')
                 (A") (A') (A") (A') (A") (A') (A") (A") (A') (A")
                 (A') (A') (A') (A') (A") (A') (A") (A') (A") (A')
                 (A') (A') (A") (A") (A") (A") (A') (A') (A") (A")
                 (A') (A') (A") (A') (A") (A") (A') (A") (A') (A")
                 (A') (A') (A") (A') (A") (A') (A') (A') (A") (A")
                 (A') (A") (A') (A') (A') (A') (A") (A") (A') (A')
                 (A') (A") (A') (A') (A') (A') (A") (A') (A') (A')
                 (A") (A") (A') (A') (A') (A") (A") (A") (A') (A')
                 (A') (A') (A') (A') (A') (A") (A') (A') (A') (A')
                 (A') (A') (A')
 Requested convergence on RMS density matrix=1.00D-08 within 128 cycles.
 Requested convergence on MAX density matrix=1.00D-06.
 Requested convergence on             energy=1.00D-06.
 No special actions if energy rises.
 SCF Done:  E(RB3LYP) =  -195.393169055     A.U. after    1 cycles
            NFock=  1  Conv=0.39D-08     -V/T= 2.0043
 DoSCS=F DFT=T ScalE2(SS,OS)=  1.000000  1.000000
 Range of M.O.s used for correlation:     1   262
 NBasis=   262 NAE=    19 NBE=    19 NFC=     0 NFV=     0
 NROrb=    262 NOA=    19 NOB=    19 NVA=   243 NVB=   243

 **** Warning!!: The largest alpha MO coefficient is  0.28408739D+02

 Symmetrizing basis deriv contribution to polar:
 IMax=3 JMax=2 DiffMx= 0.00D+00
 G2DrvN: will do    14 centers at a time, making    1 passes.
 Calling FoFCou, ICntrl=  3107 FMM=F I1Cent=   0 AccDes= 0.00D+00.
 End of G2Drv F.D. properties file   721 does not exist.
 End of G2Drv F.D. properties file   722 does not exist.
 End of G2Drv F.D. properties file   788 does not exist.
          IDoAtm=1111111111111
          Differentiating once with respect to electric field.
                with respect to dipole field.
          Differentiating once with respect to nuclear coordinates.
 CalDSu exits because no D1Ps are significant.
          There are    39 degrees of freedom in the 1st order CPHF.  IDoFFX=4 NUNeed=    39.
     39 vectors produced by pass  0 Test12= 1.18D-14 2.56D-09 XBig12= 1.25D+02 9.28D+00.
 AX will form    39 AO Fock derivatives at one time.
     39 vectors produced by pass  1 Test12= 1.18D-14 2.56D-09 XBig12= 1.01D+01 6.41D-01.
     39 vectors produced by pass  2 Test12= 1.18D-14 2.56D-09 XBig12= 1.81D-01 7.82D-02.
     39 vectors produced by pass  3 Test12= 1.18D-14 2.56D-09 XBig12= 3.62D-04 2.58D-03.
     39 vectors produced by pass  4 Test12= 1.18D-14 2.56D-09 XBig12= 4.00D-07 1.17D-04.
     25 vectors produced by pass  5 Test12= 1.18D-14 2.56D-09 XBig12= 3.55D-10 3.12D-06.
      3 vectors produced by pass  6 Test12= 1.18D-14 2.56D-09 XBig12= 2.25D-13 5.69D-08.
 InvSVY:  IOpt=1 It=  1 EMax= 4.44D-15
 Solved reduced A of dimension   223 with    39 vectors.
 Isotropic polarizability for W=    0.000000       65.17 Bohr**3.
 End of Minotr F.D. properties file   721 does not exist.
 End of Minotr F.D. properties file   722 does not exist.
 End of Minotr F.D. properties file   788 does not exist.

 **********************************************************************

            Population analysis using the SCF Density.

 **********************************************************************

 Orbital symmetries:
       Occupied  (A') (A') (A') (A') (A') (A') (A') (A') (A') (A')
                 (A') (A') (A") (A') (A') (A') (A') (A") (A")
       Virtual   (A") (A') (A') (A') (A") (A') (A') (A") (A') (A')
                 (A') (A') (A") (A') (A") (A') (A') (A') (A") (A')
                 (A') (A") (A') (A") (A') (A') (A') (A") (A') (A')
                 (A') (A') (A') (A') (A') (A') (A') (A') (A') (A')
                 (A') (A') (A") (A") (A") (A") (A') (A") (A') (A')
                 (A") (A') (A') (A") (A') (A") (A') (A') (A") (A')
                 (A') (A") (A') (A') (A") (A') (A') (A') (A') (A")
                 (A") (A') (A") (A') (A") (A') (A") (A') (A") (A")
                 (A') (A') (A") (A') (A') (A') (A') (A") (A") (A')
                 (A") (A') (A') (A') (A') (A') (A") (A') (A') (A')
                 (A") (A') (A') (A') (A') (A') (A') (A') (A') (A')
                 (A') (A') (A") (A') (A') (A') (A') (A") (A") (A")
                 (A") (A') (A') (A") (A') (A") (A") (A") (A') (A")
                 (A') (A') (A") (A') (A') (A") (A') (A') (A') (A')
                 (A") (A') (A') (A") (A') (A") (A') (A") (A") (A')
                 (A") (A') (A") (A') (A") (A') (A") (A") (A') (A")
                 (A') (A') (A') (A') (A") (A') (A") (A') (A") (A')
                 (A') (A') (A") (A") (A") (A") (A') (A') (A") (A")
                 (A') (A') (A") (A') (A") (A") (A') (A") (A') (A")
                 (A') (A') (A") (A') (A") (A') (A') (A') (A") (A")
                 (A') (A") (A') (A') (A') (A') (A") (A") (A') (A')
                 (A') (A") (A') (A') (A') (A') (A") (A') (A') (A')
                 (A") (A") (A') (A') (A') (A") (A") (A") (A') (A')
                 (A') (A') (A') (A') (A') (A") (A') (A') (A') (A')
                 (A') (A') (A')
[...]
 Alpha virt. eigenvalues --    1.25480   1.28324   1.29121   1.31752   1.33592
 Alpha virt. eigenvalues --    1.35566   1.40340   1.40425   1.43788   1.44441
 Alpha virt. eigenvalues --    1.45429   1.46805   1.49299   1.49564   1.50488
 Alpha virt. eigenvalues --    1.52807   1.53674   1.55214   1.56567   1.57355
 Alpha virt. eigenvalues --    1.59538   1.62299   1.65400   1.65856   1.66849
 Alpha virt. eigenvalues --    1.67425   1.68562   1.71836   1.74474   1.75040
 Alpha virt. eigenvalues --    1.76031   1.78406   1.79348   1.80048   1.81730
 Alpha virt. eigenvalues --    1.82769   1.83327   1.84905   1.86678   1.87275
 Alpha virt. eigenvalues --    1.88285   1.89506   1.91077   1.91323   1.93069
 Alpha virt. eigenvalues --    1.93735   1.94243   1.95534   1.96628   1.97525
 Alpha virt. eigenvalues --    1.99149   1.99154   2.01060   2.01204   2.02529
 Alpha virt. eigenvalues --    2.03094   2.04013   2.06161   2.06576   2.09528
 Alpha virt. eigenvalues --    2.12577   2.13317   2.13575   2.14682   2.14747
 Alpha virt. eigenvalues --    2.15790   2.17970   2.19361   2.21094   2.25672
 Alpha virt. eigenvalues --    2.26424   2.28091   2.28347   2.29171   2.29951
 Alpha virt. eigenvalues --    2.31758   2.31875   2.33797   2.35806   2.36889
 Alpha virt. eigenvalues --    2.39823   2.40461   2.42712   2.43935   2.46205
 Alpha virt. eigenvalues --    2.47152   2.47391   2.48563   2.51166   2.51502
 Alpha virt. eigenvalues --    2.55029   2.57028   2.57223   2.58680   2.59994
 Alpha virt. eigenvalues --    2.61390   2.61774   2.62312   2.66948   2.68758
 Alpha virt. eigenvalues --    2.71399   2.71461   2.72408   2.75646   2.79411
 Alpha virt. eigenvalues --    2.80097   2.83440   2.85600   2.85632   2.88650
 Alpha virt. eigenvalues --    2.91866   2.92687   2.96235   2.97508   2.99839
 Alpha virt. eigenvalues --    3.01095   3.05339   3.05445   3.08337   3.10252
 Alpha virt. eigenvalues --    3.12484   3.12966   3.13503   3.18114   3.21641
 Alpha virt. eigenvalues --    3.23655   3.27025   3.29935   3.31866   3.32692
 Alpha virt. eigenvalues --    3.33317   3.35555   3.37379   3.40964   3.42771
 Alpha virt. eigenvalues --    3.46036   3.47249   3.49779   3.51283   3.55752
 Alpha virt. eigenvalues --    3.59035   3.61243   3.61518   3.66857   3.71771
 Alpha virt. eigenvalues --    3.72554   3.74069   3.77352   3.80250   3.82911
 Alpha virt. eigenvalues --    3.84678   3.90322   3.91053   3.98433   4.00862
 Alpha virt. eigenvalues --    4.10197   4.20639   4.26884   4.32238   4.37606
 Alpha virt. eigenvalues --    4.40521   4.44119   4.53178   4.56260   4.59042
 Alpha virt. eigenvalues --    4.63847   4.74778   4.78547   4.79593   4.81731
 Alpha virt. eigenvalues --    4.84163   4.86651   4.91058   4.97370   4.97973
 Alpha virt. eigenvalues --    5.00616   5.02011   5.06885   5.10790   5.18956
 Alpha virt. eigenvalues --    5.19902   5.21890   5.26441   5.29207   5.29456
 Alpha virt. eigenvalues --    5.32554   5.33252   5.40293   5.45540   5.48308
 Alpha virt. eigenvalues --    5.50561   5.53028   5.59693   5.65111   5.73078
 Alpha virt. eigenvalues --    5.75649   5.79084   5.80116   5.83791   5.91268
 Alpha virt. eigenvalues --    5.92898   5.96929   5.98852   5.99764   6.07522
 Alpha virt. eigenvalues --    6.13057   6.14121   6.18233   6.18260   6.18663
 Alpha virt. eigenvalues --    6.24876   6.25978   6.29873   6.31958   6.35771
 Alpha virt. eigenvalues --    6.36172   6.39596   6.40912   6.43843   6.43932
 Alpha virt. eigenvalues --    6.53016   6.55973   6.62843   6.81953   6.97030
 Alpha virt. eigenvalues --    7.06615   7.18279   7.19579   7.21200   7.27308
 Alpha virt. eigenvalues --    7.29141   7.29337   7.34372   7.36868   7.42199
 Alpha virt. eigenvalues --    7.81460   7.81859   8.02534   8.14380   8.19302
 Alpha virt. eigenvalues --    8.21894   8.30011   8.34162   8.50653   8.53328
 Alpha virt. eigenvalues --    8.54514   8.58644   8.66534   8.71536   8.72641
 Alpha virt. eigenvalues --    8.78773   8.83725   8.90085   9.00110   9.11809
 Alpha virt. eigenvalues --    9.20412   9.27380   9.33020   9.40248   9.48745
 Alpha virt. eigenvalues --    9.54156   9.58958   9.62821   9.69309   9.75896
 Alpha virt. eigenvalues --    9.81827   9.85337   9.90197  10.11018  10.22595
 Alpha virt. eigenvalues --   20.65904  20.77181  21.06864  21.25160  21.46610
 Alpha virt. eigenvalues --   21.58905  21.61106  21.70562  21.74052  21.79770
 Alpha virt. eigenvalues --   21.83579  21.96929  22.22877  22.39428  22.59086
 Alpha virt. eigenvalues --   23.41440  23.62582  23.92131  23.94155  24.05880
          Condensed to atoms (all electrons):
               1          2          3          4          5          6
     1  C    5.007047   0.593603  -0.058152  -0.008377  -0.017736   0.444690
     2  C    0.593603   5.119921   0.236235  -0.116751   0.196467  -0.040600
     3  C   -0.058152   0.236235   5.082602   0.623873  -0.054454  -0.007599
     4  C   -0.008377  -0.116751   0.623873   4.993061  -0.000119  -0.000224
     5  C   -0.017736   0.196467  -0.054454  -0.000119   4.955663   0.005502
     6  H    0.444690  -0.040600  -0.007599  -0.000224   0.005502   0.483704
     7  H    0.465060  -0.064130   0.009099  -0.000535  -0.004864  -0.019292
     8  H   -0.006807  -0.019148   0.430537  -0.020386   0.002261   0.004309
     9  H   -0.000243   0.001852  -0.034428   0.428320   0.002899   0.000017
    10  H   -0.000661   0.010876  -0.063058   0.456985   0.000250  -0.000033
    11  H    0.005121  -0.060698   0.007413  -0.000078   0.448406   0.000269
    12  H   -0.005132  -0.049743  -0.002028  -0.001131   0.421493  -0.000306
    13  H   -0.005132  -0.049743  -0.002028  -0.001131   0.421493  -0.000306
               7          8          9         10         11         12
     1  C    0.465060  -0.006807  -0.000243  -0.000661   0.005121  -0.005132
     2  C   -0.064130  -0.019148   0.001852   0.010876  -0.060698  -0.049743
     3  C    0.009099   0.430537  -0.034428  -0.063058   0.007413  -0.002028
     4  C   -0.000535  -0.020386   0.428320   0.456985  -0.000078  -0.001131
     5  C   -0.004864   0.002261   0.002899   0.000250   0.448406   0.421493
     6  H   -0.019292   0.004309   0.000017  -0.000033   0.000269  -0.000306
     7  H    0.467411  -0.000094   0.000014   0.000006   0.000373   0.000307
     8  H   -0.000094   0.460078   0.002131  -0.004247  -0.000057  -0.000101
     9  H    0.000014   0.002131   0.473214  -0.016769  -0.000051  -0.002793
    10  H    0.000006  -0.004247  -0.016769   0.462913   0.000042  -0.000027
    11  H    0.000373  -0.000057  -0.000051   0.000042   0.558909  -0.034736
    12  H    0.000307  -0.000101  -0.002793  -0.000027  -0.034736   0.617507
    13  H    0.000307  -0.000101  -0.002793  -0.000027  -0.034736  -0.058390
              13
     1  C   -0.005132
     2  C   -0.049743
     3  C   -0.002028
     4  C   -0.001131
     5  C    0.421493
     6  H   -0.000306
     7  H    0.000307
     8  H   -0.000101
     9  H   -0.002793
    10  H   -0.000027
    11  H   -0.034736
    12  H   -0.058390
    13  H    0.617507
          Atomic-Atomic Spin Densities.
               1          2          3          4          5          6
     1  C   -0.000000  -0.000000   0.000000   0.000000   0.000000  -0.000000
     2  C   -0.000000  -0.000000  -0.000000   0.000000  -0.000000   0.000000
     3  C    0.000000  -0.000000  -0.000000  -0.000000   0.000000   0.000000
     4  C    0.000000   0.000000  -0.000000  -0.000000   0.000000   0.000000
     5  C    0.000000  -0.000000   0.000000   0.000000  -0.000000  -0.000000
     6  H   -0.000000   0.000000   0.000000   0.000000  -0.000000  -0.000000
     7  H   -0.000000   0.000000  -0.000000   0.000000   0.000000   0.000000
     8  H    0.000000   0.000000  -0.000000   0.000000  -0.000000  -0.000000
     9  H   -0.000000  -0.000000   0.000000  -0.000000  -0.000000  -0.000000
    10  H    0.000000  -0.000000   0.000000  -0.000000   0.000000   0.000000
    11  H   -0.000000   0.000000  -0.000000  -0.000000  -0.000000  -0.000000
    12  H    0.000000   0.000000   0.000000  -0.000000  -0.000000   0.000000
    13  H    0.000000   0.000000   0.000000  -0.000000  -0.000000   0.000000
               7          8          9         10         11         12
     1  C   -0.000000   0.000000  -0.000000   0.000000  -0.000000   0.000000
     2  C    0.000000   0.000000  -0.000000  -0.000000   0.000000   0.000000
     3  C   -0.000000  -0.000000   0.000000   0.000000  -0.000000   0.000000
     4  C    0.000000   0.000000  -0.000000  -0.000000  -0.000000  -0.000000
     5  C    0.000000  -0.000000  -0.000000   0.000000  -0.000000  -0.000000
     6  H    0.000000  -0.000000  -0.000000   0.000000  -0.000000   0.000000
     7  H   -0.000000   0.000000  -0.000000  -0.000000  -0.000000  -0.000000
     8  H    0.000000  -0.000000  -0.000000   0.000000   0.000000   0.000000
     9  H   -0.000000  -0.000000  -0.000000   0.000000   0.000000   0.000000
    10  H   -0.000000   0.000000   0.000000  -0.000000  -0.000000   0.000000
    11  H   -0.000000   0.000000   0.000000  -0.000000  -0.000000   0.000000
    12  H   -0.000000   0.000000   0.000000   0.000000   0.000000  -0.000000
    13  H   -0.000000   0.000000   0.000000   0.000000   0.000000   0.000000
              13
     1  C    0.000000
     2  C    0.000000
     3  C    0.000000
     4  C   -0.000000
     5  C   -0.000000
     6  H    0.000000
     7  H   -0.000000
     8  H    0.000000
     9  H    0.000000
    10  H    0.000000
    11  H    0.000000
    12  H    0.000000
    13  H   -0.000000
 Mulliken charges and spin densities:
               1          2
     1  C   -0.413280  -0.000000
     2  C    0.241859  -0.000000
     3  C   -0.168014  -0.000000
     4  C   -0.353507  -0.000000
     5  C   -0.377262  -0.000000
     6  H    0.129869  -0.000000
     7  H    0.146337  -0.000000
     8  H    0.151626  -0.000000
     9  H    0.148632  -0.000000
    10  H    0.153751  -0.000000
    11  H    0.109825  -0.000000
    12  H    0.115082  -0.000000
    13  H    0.115082  -0.000000
 Sum of Mulliken charges =  -0.00000  -0.00000
 Mulliken charges and spin densities with hydrogens summed into heavy atoms:
               1          2
     1  C   -0.137074  -0.000000
     2  C    0.241859  -0.000000
     3  C   -0.016388  -0.000000
     4  C   -0.051124  -0.000000
     5  C   -0.037273  -0.000000
 Electronic spatial extent (au):  <R**2>=            469.6530
 Charge=              0.0000 electrons
 Dipole moment (field-independent basis, Debye):
    X=              0.2731    Y=             -0.0217    Z=             -0.0000  Tot=              0.2740
 Quadrupole moment (field-independent basis, Debye-Ang):
   XX=            -29.9171   YY=            -30.3493   ZZ=            -35.9293
   XY=             -0.0524   XZ=              0.0000   YZ=             -0.0000
 Traceless Quadrupole moment (field-independent basis, Debye-Ang):
   XX=              2.1481   YY=              1.7159   ZZ=             -3.8640
   XY=             -0.0524   XZ=              0.0000   YZ=             -0.0000
 Octapole moment (field-independent basis, Debye-Ang**2):
  XXX=             -3.0456  YYY=             -0.1870  ZZZ=             -0.0000  XYY=              0.3736
  XXY=              0.0218  XXZ=             -0.0000  XZZ=              3.0004  YZZ=              0.0870
  YYZ=             -0.0000  XYZ=             -0.0000
 Hexadecapole moment (field-independent basis, Debye-Ang**3):
 XXXX=           -218.4997 YYYY=           -362.7469 ZZZZ=            -50.9210 XXXY=            -17.4496
 XXXZ=             -0.0000 YYYX=             -8.5252 YYYZ=             -0.0000 ZZZX=              0.0000
 ZZZY=             -0.0000 XXYY=            -95.2536 XXZZ=            -47.2496 YYZZ=            -84.0117
 XXYZ=             -0.0000 YYXZ=              0.0000 ZZXY=             -6.9206
 N-N= 1.607018557119D+02 E-N=-7.724200795862D+02  KE= 1.938504367437D+02
 Symmetry A'   KE= 1.880194275829D+02
 Symmetry A"   KE= 5.831009160863D+00
 Symmetry A'   SP=-6.861748923539D-15
 Symmetry A"   SP=-1.201175437271D-15
                          Isotropic Fermi Contact Couplings
        Atom                 a.u.       MegaHertz       Gauss      10(-4) cm-1
     1  C(13)             -0.00000      -0.00000      -0.00000      -0.00000
     2  C(13)             -0.00000      -0.00000      -0.00000      -0.00000
     3  C(13)             -0.00000      -0.00000      -0.00000      -0.00000
     4  C(13)             -0.00000      -0.00000      -0.00000      -0.00000
     5  C(13)             -0.00000      -0.00000      -0.00000      -0.00000
     6  H(1)              -0.00000      -0.00000      -0.00000      -0.00000
     7  H(1)              -0.00000      -0.00000      -0.00000      -0.00000
     8  H(1)              -0.00000      -0.00000      -0.00000      -0.00000
     9  H(1)              -0.00000      -0.00000      -0.00000      -0.00000
    10  H(1)              -0.00000      -0.00000      -0.00000      -0.00000
    11  H(1)              -0.00000      -0.00000      -0.00000      -0.00000
    12  H(1)              -0.00000      -0.00000      -0.00000      -0.00000
    13  H(1)              -0.00000      -0.00000      -0.00000      -0.00000
 --------------------------------------------------------
       Center         ----  Spin Dipole Couplings  ----
                      3XX-RR        3YY-RR        3ZZ-RR
 --------------------------------------------------------
     1   Atom        0.000000      0.000000      0.000000
     2   Atom        0.000000      0.000000      0.000000
     3   Atom        0.000000      0.000000      0.000000
     4   Atom        0.000000      0.000000      0.000000
     5   Atom        0.000000      0.000000      0.000000
     6   Atom        0.000000      0.000000      0.000000
     7   Atom        0.000000      0.000000      0.000000
     8   Atom        0.000000      0.000000      0.000000
     9   Atom        0.000000      0.000000      0.000000
    10   Atom        0.000000      0.000000      0.000000
    11   Atom        0.000000      0.000000      0.000000
    12   Atom        0.000000      0.000000      0.000000
    13   Atom        0.000000      0.000000      0.000000
 --------------------------------------------------------
                        XY            XZ            YZ
 --------------------------------------------------------
     1   Atom        0.000000      0.000000      0.000000
     2   Atom        0.000000      0.000000      0.000000
     3   Atom        0.000000      0.000000      0.000000
     4   Atom        0.000000      0.000000      0.000000
     5   Atom        0.000000      0.000000      0.000000
     6   Atom        0.000000      0.000000      0.000000
     7   Atom        0.000000      0.000000      0.000000
     8   Atom        0.000000      0.000000      0.000000
     9   Atom        0.000000      0.000000      0.000000
    10   Atom        0.000000      0.000000      0.000000
    11   Atom        0.000000      0.000000      0.000000
    12   Atom        0.000000      0.000000      0.000000
    13   Atom        0.000000      0.000000      0.000000
 --------------------------------------------------------


 ---------------------------------------------------------------------------------
              Anisotropic Spin Dipole Couplings in Principal Axis System
 ---------------------------------------------------------------------------------

       Atom             a.u.   MegaHertz   Gauss  10(-4) cm-1        Axes

              Baa     0.0000     0.000     0.000     0.000  1.0000  0.0000  0.0000
     1 C(13)  Bbb     0.0000     0.000     0.000     0.000 -0.0000  1.0000  0.0000
              Bcc     0.0000     0.000     0.000     0.000  0.0000  0.0000  1.0000
 
              Baa     0.0000     0.000     0.000     0.000  1.0000  0.0000  0.0000
     2 C(13)  Bbb     0.0000     0.000     0.000     0.000 -0.0000  1.0000  0.0000
              Bcc     0.0000     0.000     0.000     0.000  0.0000  0.0000  1.0000
 
              Baa     0.0000     0.000     0.000     0.000  1.0000  0.0000  0.0000
     3 C(13)  Bbb     0.0000     0.000     0.000     0.000 -0.0000  1.0000  0.0000
              Bcc     0.0000     0.000     0.000     0.000  0.0000  0.0000  1.0000
 
              Baa     0.0000     0.000     0.000     0.000  1.0000  0.0000  0.0000
     4 C(13)  Bbb     0.0000     0.000     0.000     0.000 -0.0000  1.0000  0.0000
              Bcc     0.0000     0.000     0.000     0.000  0.0000  0.0000  1.0000
 
              Baa     0.0000     0.000     0.000     0.000  1.0000  0.0000  0.0000
     5 C(13)  Bbb     0.0000     0.000     0.000     0.000 -0.0000  1.0000  0.0000
              Bcc     0.0000     0.000     0.000     0.000  0.0000  0.0000  1.0000
 
              Baa     0.0000     0.000     0.000     0.000  1.0000  0.0000  0.0000
     6 H(1)   Bbb     0.0000     0.000     0.000     0.000 -0.0000  1.0000  0.0000
              Bcc     0.0000     0.000     0.000     0.000  0.0000  0.0000  1.0000
 
              Baa     0.0000     0.000     0.000     0.000  1.0000  0.0000  0.0000
     7 H(1)   Bbb     0.0000     0.000     0.000     0.000 -0.0000  1.0000  0.0000
              Bcc     0.0000     0.000     0.000     0.000  0.0000  0.0000  1.0000
 
              Baa     0.0000     0.000     0.000     0.000  1.0000  0.0000  0.0000
     8 H(1)   Bbb     0.0000     0.000     0.000     0.000 -0.0000  1.0000  0.0000
              Bcc     0.0000     0.000     0.000     0.000  0.0000  0.0000  1.0000
 
              Baa     0.0000     0.000     0.000     0.000  1.0000  0.0000  0.0000
     9 H(1)   Bbb     0.0000     0.000     0.000     0.000 -0.0000  1.0000  0.0000
              Bcc     0.0000     0.000     0.000     0.000  0.0000  0.0000  1.0000
 
              Baa     0.0000     0.000     0.000     0.000  1.0000  0.0000  0.0000
    10 H(1)   Bbb     0.0000     0.000     0.000     0.000 -0.0000  1.0000  0.0000
              Bcc     0.0000     0.000     0.000     0.000  0.0000  0.0000  1.0000
 
              Baa     0.0000     0.000     0.000     0.000  1.0000  0.0000  0.0000
    11 H(1)   Bbb     0.0000     0.000     0.000     0.000 -0.0000  1.0000  0.0000
              Bcc     0.0000     0.000     0.000     0.000  0.0000  0.0000  1.0000
 
              Baa     0.0000     0.000     0.000     0.000  1.0000  0.0000  0.0000
    12 H(1)   Bbb     0.0000     0.000     0.000     0.000 -0.0000  1.0000  0.0000
              Bcc     0.0000     0.000     0.000     0.000  0.0000  0.0000  1.0000
 
              Baa     0.0000     0.000     0.000     0.000  1.0000  0.0000  0.0000
    13 H(1)   Bbb     0.0000     0.000     0.000     0.000 -0.0000  1.0000  0.0000
              Bcc     0.0000     0.000     0.000     0.000  0.0000  0.0000  1.0000
 

 ---------------------------------------------------------------------------------

 1\1\GINC-GAMBA\SP\ROHF\Gen\C5H8\IRIKURA\29-Sep-2023\0\\# rohf/gen geom
 =check guess=check\\2-methyl-1,3-butadiene, ROHF/cc-pVTZ-F12\\0,1\C,0,
 -0.590379,1.724998,0.\C,0,0.,0.523821,0.\C,0,-0.821594,-0.688115,0.\C,
 0,-0.371575,-1.943997,0.\C,0,1.497875,0.382972,0.\H,0,-1.668189,1.8226
 83,0.\H,0,-0.016438,2.641619,0.\H,0,-1.893636,-0.519276,0.\H,0,0.68354
 1,-2.181497,0.\H,0,-1.054839,-2.781578,0.\H,0,1.981945,1.357553,0.\H,0
 ,1.840828,-0.168787,0.87783\H,0,1.840828,-0.168787,-0.87783\\Version=E
 S64L-G16RevB.01\State=1-A'\HF=-194.0402453\RMSD=5.169e-09\Dipole=0.107
 4588,-0.008552,0.\Quadrupole=1.5970584,1.2757568,-2.8728152,-0.0389397
 ,0.,0.\PG=CS [SG(C5H6),X(H2)]\\@


 EVERYTHING'S GOT A MORAL, IF ONLY YOU CAN FIND IT.

                                    -- LEWIS CARROL, ALICE IN WONDERLAND
 Job cpu time:       0 days  0 hours 16 minutes 31.1 seconds.
 Elapsed time:       0 days  0 hours  4 minutes  8.0 seconds.
 File lengths (MBytes):  RWF=    120 Int=      0 D2E=      0 Chk=     15 Scr=      1
 Normal termination of Gaussian 16 at Fri Sep 29 14:43:18 2023.
