 Entering Gaussian System, Link 0=g16
 AtFile(1): pcseg2.gbs
            -H     0
            S   4   1.00
                  0.754732D+02           0.427821D-02
                  0.113575D+02           0.328672D-01
                  0.260081D+01           0.159578D+00
                  0.735503D+00           0.500000D+00
            S   1   1.00
                  0.231761D+00           1.0000000
            S   1   1.00
                  0.741675D-01           1.0000000
            P   1   1.00
                  0.160000D+01           1.0000000
            P   1   1.00
                  0.450000D+00           1.0000000
            D   1   1.00
                  0.125000D+01           1.0000000
            ****
            -C     0
            S   7   1.00
                  0.731999D+04           0.695369D-03
                  0.109818D+04           0.537138D-02
                  0.250014D+03           0.274734D-01
                  0.707586D+02           0.105078D+00
                  0.228595D+02           0.291262D+00
                  0.803936D+01           0.500000D+00
                  0.289309D+01           0.362224D+00
            S   2   1.00
                  0.521640D+01          -0.957844D-01
                  0.556124D+00           0.500000D+00
            S   1   1.00
                  0.228813D+00           1.0000000
            S   1   1.00
                  0.936338D-01           1.0000000
            P   4   1.00
                  0.339855D+02           0.818395D-02
                  0.772957D+01           0.586921D-01
                  0.224954D+01           0.222514D+00
                  0.767681D+00           0.500000D+00
            P   1   1.00
                  0.263283D+00           1.0000000
            P   1   1.00
                  0.848744D-01           1.0000000
            D   1   1.00
                  0.140000D+01           1.0000000
            D   1   1.00
                  0.450000D+00           1.0000000
            F   1   1.00
                  0.950000D+00           1.0000000
            ****
            -O     0
            S   7   1.00
                  0.135887D+05           0.665492D-03
                  0.203847D+04           0.514222D-02
                  0.464041D+03           0.263472D-01
                  0.131339D+03           0.101500D+00
                  0.425340D+02           0.285877D+00
                  0.150429D+02           0.500000D+00
                  0.546616D+01           0.368211D+00
            S   2   1.00
                  0.100915D+02          -0.100084D+00
                  0.110429D+01           0.500000D+00
            S   1   1.00
                  0.448082D+00           1.0000000
            S   1   1.00
                  0.175325D+00           1.0000000
            P   4   1.00
                  0.608220D+02           0.908253D-02
                  0.140332D+02           0.645878D-01
                  0.418244D+01           0.241502D+00
                  0.142490D+01           0.500000D+00
            P   1   1.00
                  0.478741D+00           1.0000000
            P   1   1.00
                  0.146257D+00           1.0000000
            D   1   1.00
                  0.220000D+01           1.0000000
            D   1   1.00
                  0.650000D+00           1.0000000
            F   1   1.00
                  0.110000D+01           1.0000000
            ****
            -N     0
            S   7   1.00
                  0.101643D+05           0.682757D-03
                  0.152481D+04           0.527488D-02
                  0.347119D+03           0.270037D-01
                  0.982389D+02           0.103673D+00
                  0.317799D+02           0.289575D+00
                  0.112240D+02           0.500000D+00
                  0.406611D+01           0.364621D+00
            S   2   1.00
                  0.747898D+01          -0.975681D-01
                  0.805040D+00           0.500000D+00
            S   1   1.00
                  0.324626D+00           1.0000000
            S   1   1.00
                  0.128132D+00           1.0000000
            P   4   1.00
                  0.482704D+02           0.829547D-02
                  0.110815D+02           0.596223D-01
                  0.326643D+01           0.227889D+00
                  0.111680D+01           0.500000D+00
            P   1   1.00
                  0.382049D+00           1.0000000
            P   1   1.00
                  0.121222D+00           1.0000000
            D   1   1.00
                  0.180000D+01           1.0000000
            D   1   1.00
                  0.550000D+00           1.0000000
            F   1   1.00
                  0.102000D+01           1.0000000
            ****
            -F     0
            S   7   1.00
                  0.174507D+05           0.655972D-03
                  0.261768D+04           0.506944D-02
                  0.595857D+03           0.259899D-01
                  0.168651D+03           0.100353D+00
                  0.546654D+02           0.284095D+00
                  0.193717D+02           0.500000D+00
                  0.706202D+01           0.370721D+00
            S   2   1.00
                  0.131197D+02          -0.101997D+00
                  0.145046D+01           0.500000D+00
            S   1   1.00
                  0.588255D+00           1.0000000
            S   1   1.00
                  0.227960D+00           1.0000000
            P   4   1.00
                  0.779407D+02           0.931135D-02
                  0.180425D+02           0.663964D-01
                  0.542342D+01           0.246386D+00
                  0.184876D+01           0.500000D+00
            P   1   1.00
                  0.617455D+00           1.0000000
            P   1   1.00
                  0.185496D+00           1.0000000
            D   1   1.00
                  0.280000D+01           1.0000000
            D   1   1.00
                  0.800000D+00           1.0000000
            F   1   1.00
                  0.120000D+01           1.0000000
            ****
            -Cl     0
            S   8   1.00
                  0.154272D+06           0.222473D-03
                  0.231232D+05           0.172590D-02
                  0.526257D+04           0.899286D-02
                  0.148995D+04           0.367724D-01
                  0.485417D+03           0.121446D+00
                  0.174634D+03           0.304148D+00
                  0.672393D+02           0.500000D+00
                  0.265780D+02           0.360252D+00
            S   3   1.00
                  0.131826D+03          -0.531330D-01
                  0.400703D+02          -0.233346D+00
                  0.789448D+01           0.500000D+00
            S   2   1.00
                  0.427711D+01           0.500000D+00
                  0.196233D+01           0.370517D+00
            S   1   1.00
                  0.520793D+00           1.0000000
            S   1   1.00
                  0.181633D+00           1.0000000
            P   7   1.00
                  0.124440D+04           0.988206D-03
                  0.295109D+03           0.829674D-02
                  0.947224D+02           0.430906D-01
                  0.352588D+02           0.148443D+00
                  0.144211D+02           0.344744D+00
                  0.610371D+01           0.500000D+00
                  0.258886D+01           0.348278D+00
            P   2   1.00
                  0.109447D+02          -0.196768D-01
                  0.104413D+01           0.500000D+00
            P   1   1.00
                  0.376184D+00           1.0000000
            P   1   1.00
                  0.120613D+00           1.0000000
            D   1   1.00
                  0.231000D+01           1.0000000
            D   1   1.00
                  0.520000D+00           1.0000000
            F   1   1.00
                  0.720000D+00           1.0000000
            ****
            -S     0
            S   8   1.00
                  0.134700D+06           0.226231D-03
                  0.201904D+05           0.175488D-02
                  0.459528D+04           0.914190D-02
                  0.130109D+04           0.373551D-01
                  0.423902D+03           0.123121D+00
                  0.152485D+03           0.306801D+00
                  0.586925D+02           0.500000D+00
                  0.231461D+02           0.354358D+00
            S   3   1.00
                  0.116327D+03          -0.491772D-01
                  0.352841D+02          -0.215962D+00
                  0.677831D+01           0.500000D+00
            S   2   1.00
                  0.360404D+01           0.500000D+00
                  0.164871D+01           0.366278D+00
            S   1   1.00
                  0.421821D+00           1.0000000
            S   1   1.00
                  0.147554D+00           1.0000000
            P   7   1.00
                  0.104863D+04           0.105273D-02
                  0.248717D+03           0.879338D-02
                  0.797887D+02           0.453358D-01
                  0.296023D+02           0.154476D+00
                  0.120627D+02           0.352366D+00
                  0.507628D+01           0.500000D+00
                  0.213375D+01           0.346429D+00
            P   2   1.00
                  0.928958D+01          -0.185932D-01
                  0.837819D+00           0.500000D+00
            P   1   1.00
                  0.301495D+00           1.0000000
            P   1   1.00
                  0.974740D-01           1.0000000
            D   1   1.00
                  0.210000D+01           1.0000000
            D   1   1.00
                  0.480000D+00           1.0000000
            F   1   1.00
                  0.660000D+00           1.0000000
            ****
            -Br     0
            S    10   1.00
                  0.233625D+07           0.532336D-04
                  0.349961D+06           0.413715D-03
                  0.796444D+05           0.217123D-02
                  0.225555D+05           0.910109D-02
                  0.735546D+04           0.323789D-01
                  0.265352D+04           0.988755D-01
                  0.103517D+04           0.248138D+00
                  0.422205D+03           0.474328D+00
                  0.180035D+03           0.500000D+00
                  0.793308D+02           0.187769D+00
            S    4   1.00
                  0.620834D+03          -0.226511D-01
                  0.190829D+03          -0.109497D+00
                  0.312505D+02           0.500000D+00
                  0.135270D+02           0.492812D+00
            S    2   1.00
                  0.216097D+02          -0.165418D+00
                  0.372566D+01           0.500000D+00
            S    1   1.00
                  0.169770D+01           1.0000000
            S    1   1.00
                  0.489332D+00           1.0000000
            S    1   1.00
                  0.175712D+00           1.0000000
            P    8   1.00
                  0.960829D+04           0.478974D-03
                  0.227618D+04           0.417853D-02
                  0.736723D+03           0.229315D-01
                  0.281579D+03           0.892653D-01
                  0.118395D+03           0.255288D+00
                  0.527481D+02           0.479074D+00
                  0.245098D+02           0.500000D+00
                  0.112009D+02           0.200944D+00
            P    4   1.00
                  0.587849D+02          -0.189674D-01
                  0.918962D+01           0.264104D+00
                  0.413895D+01           0.500000D+00
                  0.184225D+01           0.319316D+00
            P    1   1.00
                  0.713862D+00           1.0000000
            P    1   1.00
                  0.274232D+00           1.0000000
            P    1   1.00
                  0.944411D-01           1.0000000
            D    7   1.00
                  0.398470D+03           0.204066D-02
                  0.118967D+03           0.175171D-01
                  0.450197D+02           0.829708D-01
                  0.190320D+02           0.236284D+00
                  0.855686D+01           0.428468D+00
                  0.382950D+01           0.500000D+00
                  0.166291D+01           0.349360D+00
            D    1   1.00
                  0.672953D+00           1.0000000
            D    1   1.00
                  0.252000D+00           1.0000000
            F    1   1.00
                  0.530000D+00           1.0000000
            ****
            -Si     0
            S    8   1.00
                  0.996133D+05           0.235546D-03
                  0.149311D+05           0.182707D-02
                  0.339820D+04           0.951425D-02
                  0.962140D+03           0.388172D-01
                  0.313430D+03           0.127328D+00
                  0.112683D+03           0.313522D+00
                  0.433372D+02           0.500000D+00
                  0.170029D+02           0.340347D+00
            S    3   1.00
                  0.884208D+02          -0.404451D-01
                  0.266756D+02          -0.178059D+00
                  0.479640D+01           0.500000D+00
            S    2   1.00
                  0.239385D+01           0.500000D+00
                  0.108333D+01           0.338016D+00
            S    1   1.00
                  0.252420D+00           1.0000000
            S    1   1.00
                  0.891210D-01           1.0000000
            P    7   1.00
                  0.709901D+03           0.123028D-02
                  0.168426D+03           0.101366D-01
                  0.539946D+02           0.511840D-01
                  0.198646D+02           0.169967D+00
                  0.801369D+01           0.370717D+00
                  0.331870D+01           0.500000D+00
                  0.136112D+01           0.344128D+00
            P    2   1.00
                  0.622158D+01          -0.166609D-01
                  0.503049D+00           0.500000D+00
            P    1   1.00
                  0.179848D+00           1.0000000
            P    1   1.00
                  0.591912D-01           1.0000000
            D    1   1.00
                  0.168000D+01           1.0000000
            D    1   1.00
                  0.380000D+00           1.0000000
            F    1   1.00
                  0.540000D+00           1.0000000
            ****
            -P     0
            S    8   1.00
                  0.116416D+06           0.230715D-03
                  0.174500D+05           0.178960D-02
                  0.397149D+04           0.932116D-02
                  0.112447D+04           0.380591D-01
                  0.366347D+03           0.125148D+00
                  0.131757D+03           0.310022D+00
                  0.506988D+02           0.500000D+00
                  0.199436D+02           0.347528D+00
            S    3   1.00
                  0.101878D+03          -0.446755D-01
                  0.308249D+02          -0.196376D+00
                  0.573688D+01           0.500000D+00
            S    2   1.00
                  0.296868D+01           0.500000D+00
                  0.135315D+01           0.355098D+00
            S    1   1.00
                  0.332196D+00           1.0000000
            S    1   1.00
                  0.116229D+00           1.0000000
            P    7   1.00
                  0.873928D+03           0.112375D-02
                  0.207298D+03           0.933330D-02
                  0.664628D+02           0.477213D-01
                  0.245665D+02           0.160733D+00
                  0.996820D+01           0.359760D+00
                  0.416536D+01           0.500000D+00
                  0.173022D+01           0.346593D+00
            P    2   1.00
                  0.772530D+01          -0.175718D-01
                  0.657252D+00           0.500000D+00
            P    1   1.00
                  0.239903D+00           1.0000000
            P    1   1.00
                  0.800988D-01           1.0000000
            D    1   1.00
                  0.189000D+01           1.0000000
            D    1   1.00
                  0.430000D+00           1.0000000
            F    1   1.00
                  0.600000D+00           1.0000000
            ****
            
 Initial command:
 /usr/local/apps/g16_b01_avx/g16/l1.exe "/wrk/irikura/Gau-24614.inp" -scrdir="/wrk/irikura/"
 Entering Link 1 = /usr/local/apps/g16_b01_avx/g16/l1.exe PID=     24616.
  
 Copyright (c) 1988-2017, Gaussian, Inc.  All Rights Reserved.
  
 This is part of the Gaussian(R) 16 program.  It is based on
 the Gaussian(R) 09 system (copyright 2009, Gaussian, Inc.),
 the Gaussian(R) 03 system (copyright 2003, Gaussian, Inc.),
 the Gaussian(R) 98 system (copyright 1998, Gaussian, Inc.),
 the Gaussian(R) 94 system (copyright 1995, Gaussian, Inc.),
 the Gaussian 92(TM) system (copyright 1992, Gaussian, Inc.),
 the Gaussian 90(TM) system (copyright 1990, Gaussian, Inc.),
 the Gaussian 88(TM) system (copyright 1988, Gaussian, Inc.),
 the Gaussian 86(TM) system (copyright 1986, Carnegie Mellon
 University), and the Gaussian 82(TM) system (copyright 1983,
 Carnegie Mellon University). Gaussian is a federally registered
 trademark of Gaussian, Inc.
  
 This software contains proprietary and confidential information,
 including trade secrets, belonging to Gaussian, Inc.
  
 This software is provided under written license and may be
 used, copied, transmitted, or stored only in accord with that
 written license.
  
 The following legend is applicable only to US Government
 contracts under FAR:
  
                    RESTRICTED RIGHTS LEGEND
  
 Use, reproduction and disclosure by the US Government is
 subject to restrictions as set forth in subparagraphs (a)
 and (c) of the Commercial Computer Software - Restricted
 Rights clause in FAR 52.227-19.
  
 Gaussian, Inc.
 340 Quinnipiac St., Bldg. 40, Wallingford CT 06492
  
  
 ---------------------------------------------------------------
 Warning -- This program may not be used in any manner that
 competes with the business of Gaussian, Inc. or will provide
 assistance to any competitor of Gaussian, Inc.  The licensee
 of this program is prohibited from giving any competitor of
 Gaussian, Inc. access to this program.  By using this program,
 the user acknowledges that Gaussian, Inc. is engaged in the
 business of creating and licensing software in the field of
 computational chemistry and represents and warrants to the
 licensee that it is not a competitor of Gaussian, Inc. and that
 it will not use this program in any manner prohibited above.
 ---------------------------------------------------------------
  

 Cite this work as:
 Gaussian 16, Revision B.01,
 M. J. Frisch, G. W. Trucks, H. B. Schlegel, G. E. Scuseria, 
 M. A. Robb, J. R. Cheeseman, G. Scalmani, V. Barone, 
 G. A. Petersson, H. Nakatsuji, X. Li, M. Caricato, A. V. Marenich, 
 J. Bloino, B. G. Janesko, R. Gomperts, B. Mennucci, H. P. Hratchian, 
 J. V. Ortiz, A. F. Izmaylov, J. L. Sonnenberg, D. Williams-Young, 
 F. Ding, F. Lipparini, F. Egidi, J. Goings, B. Peng, A. Petrone, 
 T. Henderson, D. Ranasinghe, V. G. Zakrzewski, J. Gao, N. Rega, 
 G. Zheng, W. Liang, M. Hada, M. Ehara, K. Toyota, R. Fukuda, 
 J. Hasegawa, M. Ishida, T. Nakajima, Y. Honda, O. Kitao, H. Nakai, 
 T. Vreven, K. Throssell, J. A. Montgomery, Jr., J. E. Peralta, 
 F. Ogliaro, M. J. Bearpark, J. J. Heyd, E. N. Brothers, K. N. Kudin, 
 V. N. Staroverov, T. A. Keith, R. Kobayashi, J. Normand, 
 K. Raghavachari, A. P. Rendell, J. C. Burant, S. S. Iyengar, 
 J. Tomasi, M. Cossi, J. M. Millam, M. Klene, C. Adamo, R. Cammi, 
 J. W. Ochterski, R. L. Martin, K. Morokuma, O. Farkas, 
 J. B. Foresman, and D. J. Fox, Gaussian, Inc., Wallingford CT, 2016.
 
 ******************************************
 Gaussian 16:  ES64L-G16RevB.01 20-Dec-2017
                15-Jun-2022 
 ******************************************
 %mem=1000mw
 %nprocs=12
 Will use up to   12 processors via shared memory.
 --------------------
 # b3lyp/gen opt freq
 --------------------
 1/18=20,19=15,26=3,38=1/1,3;
 2/9=110,12=2,17=6,18=5,40=1/2;
 3/5=7,11=2,25=1,30=1,71=1,74=-5/1,2,3;
 4//1;
 5/5=2,38=5/2;
 6/7=2,8=2,9=2,10=2,28=1/1;
 7//1,2,3,16;
 1/18=20,19=15,26=3/3(2);
 2/9=110/2;
 99//99;
 2/9=110/2;
 3/5=7,6=1,11=2,25=1,30=1,71=1,74=-5,82=7/1,2,3;
 4/5=5,16=3,69=1/1;
 5/5=2,38=5/2;
 7//1,2,3,16;
 1/18=20,19=15,26=3/3(-5);
 2/9=110/2;
 6/7=2,8=2,9=2,10=2,19=2,28=1/1;
 99/9=1/99;
 -------------------------------------
 2-methyl-1,3-butadiene, B3LYP/pcseg-2
 -------------------------------------
 Symbolic Z-matrix:
 Charge =  0 Multiplicity = 1
 C                    -0.5852    1.73051   0. 
 C                     0.        0.52507   0. 
 C                    -0.82461  -0.68575   0. 
 C                    -0.37768  -1.94471   0. 
 C                     1.50014   0.37621   0. 
 H                    -1.66556   1.83533   0. 
 H                    -0.00713   2.64836   0. 
 H                    -1.89919  -0.5105    0. 
 H                     0.67988  -2.18553   0. 
 H                    -1.06223  -2.78552   0. 
 H                     1.99351   1.35073   0. 
 H                     1.84242  -0.18044   0.88014 
 H                     1.84242  -0.18044  -0.88014 
 

 GradGradGradGradGradGradGradGradGradGradGradGradGradGradGradGradGradGrad
 Berny optimization.
 Initialization pass.
                           ----------------------------
                           !    Initial Parameters    !
                           ! (Angstroms and Degrees)  !
 --------------------------                            --------------------------
 ! Name  Definition              Value          Derivative Info.                !
 --------------------------------------------------------------------------------
 ! R1    R(1,2)                  1.34           estimate D2E/DX2                !
 ! R2    R(1,6)                  1.0854         estimate D2E/DX2                !
 ! R3    R(1,7)                  1.0847         estimate D2E/DX2                !
 ! R4    R(2,3)                  1.4649         estimate D2E/DX2                !
 ! R5    R(2,5)                  1.5075         estimate D2E/DX2                !
 ! R6    R(3,4)                  1.3359         estimate D2E/DX2                !
 ! R7    R(3,8)                  1.0888         estimate D2E/DX2                !
 ! R8    R(4,9)                  1.0846         estimate D2E/DX2                !
 ! R9    R(4,10)                 1.0842         estimate D2E/DX2                !
 ! R10   R(5,11)                 1.0923         estimate D2E/DX2                !
 ! R11   R(5,12)                 1.0962         estimate D2E/DX2                !
 ! R12   R(5,13)                 1.0962         estimate D2E/DX2                !
 ! A1    A(2,1,6)              121.4368         estimate D2E/DX2                !
 ! A2    A(2,1,7)              121.9018         estimate D2E/DX2                !
 ! A3    A(6,1,7)              116.6614         estimate D2E/DX2                !
 ! A4    A(1,2,3)              119.8486         estimate D2E/DX2                !
 ! A5    A(1,2,5)              121.5622         estimate D2E/DX2                !
 ! A6    A(3,2,5)              118.5892         estimate D2E/DX2                !
 ! A7    A(2,3,4)              126.1987         estimate D2E/DX2                !
 ! A8    A(2,3,8)              114.9936         estimate D2E/DX2                !
 ! A9    A(4,3,8)              118.8077         estimate D2E/DX2                !
 ! A10   A(3,4,9)              122.3735         estimate D2E/DX2                !
 ! A11   A(3,4,10)             121.3043         estimate D2E/DX2                !
 ! A12   A(9,4,10)             116.3222         estimate D2E/DX2                !
 ! A13   A(2,5,11)             111.1845         estimate D2E/DX2                !
 ! A14   A(2,5,12)             111.153          estimate D2E/DX2                !
 ! A15   A(2,5,13)             111.153          estimate D2E/DX2                !
 ! A16   A(11,5,12)            108.1804         estimate D2E/DX2                !
 ! A17   A(11,5,13)            108.1804         estimate D2E/DX2                !
 ! A18   A(12,5,13)            106.8161         estimate D2E/DX2                !
 ! D1    D(6,1,2,3)              0.0            estimate D2E/DX2                !
 ! D2    D(6,1,2,5)            180.0            estimate D2E/DX2                !
 ! D3    D(7,1,2,3)            180.0            estimate D2E/DX2                !
 ! D4    D(7,1,2,5)              0.0            estimate D2E/DX2                !
 ! D5    D(1,2,3,4)            180.0            estimate D2E/DX2                !
 ! D6    D(1,2,3,8)              0.0            estimate D2E/DX2                !
 ! D7    D(5,2,3,4)              0.0            estimate D2E/DX2                !
 ! D8    D(5,2,3,8)            180.0            estimate D2E/DX2                !
 ! D9    D(1,2,5,11)             0.0            estimate D2E/DX2                !
 ! D10   D(1,2,5,12)           120.5812         estimate D2E/DX2                !
 ! D11   D(1,2,5,13)          -120.5812         estimate D2E/DX2                !
 ! D12   D(3,2,5,11)           180.0            estimate D2E/DX2                !
 ! D13   D(3,2,5,12)           -59.4188         estimate D2E/DX2                !
 ! D14   D(3,2,5,13)            59.4188         estimate D2E/DX2                !
 ! D15   D(2,3,4,9)              0.0            estimate D2E/DX2                !
 ! D16   D(2,3,4,10)           180.0            estimate D2E/DX2                !
 ! D17   D(8,3,4,9)            180.0            estimate D2E/DX2                !
 ! D18   D(8,3,4,10)             0.0            estimate D2E/DX2                !
 --------------------------------------------------------------------------------
 Trust Radius=3.00D-01 FncErr=1.00D-07 GrdErr=1.00D-06 EigMax=2.50D+02 EigMin=1.00D-04
 Number of steps in this run=     58 maximum allowed number of steps=    100.
 GradGradGradGradGradGradGradGradGradGradGradGradGradGradGradGradGradGrad

                          Input orientation:                          
 ---------------------------------------------------------------------
 Center     Atomic      Atomic             Coordinates (Angstroms)
 Number     Number       Type             X           Y           Z
 ---------------------------------------------------------------------
      1          6           0       -0.585197    1.730505    0.000000
      2          6           0        0.000000    0.525074    0.000000
      3          6           0       -0.824614   -0.685746    0.000000
      4          6           0       -0.377681   -1.944706    0.000000
      5          6           0        1.500138    0.376209    0.000000
      6          1           0       -1.665557    1.835326    0.000000
      7          1           0       -0.007125    2.648356    0.000000
      8          1           0       -1.899186   -0.510495    0.000000
      9          1           0        0.679882   -2.185533    0.000000
     10          1           0       -1.062228   -2.785518    0.000000
     11          1           0        1.993505    1.350728    0.000000
     12          1           0        1.842418   -0.180436    0.880143
     13          1           0        1.842418   -0.180436   -0.880143
 ---------------------------------------------------------------------
                    Distance matrix (angstroms):
                    1          2          3          4          5
     1  C    0.000000
     2  C    1.339970   0.000000
     3  C    2.428083   1.464948   0.000000
     4  C    3.681065   2.498491   1.335938   0.000000
     5  C    2.486512   1.507506   2.555821   2.985440   0.000000
     6  H    1.085433   2.119160   2.657628   3.993403   3.485778
     7  H    1.084720   2.123294   3.432860   4.607985   2.726627
     8  H    2.597816   2.163171   1.088769   2.090918   3.513068
     9  H    4.115310   2.794571   2.124351   1.084637   2.689859
    10  H    4.541148   3.476830   2.113174   1.084237   4.069673
    11  H    2.606518   2.157723   3.476927   4.059853   1.092290
    12  H    3.212423   2.160301   2.853603   2.969199   1.096203
    13  H    3.212423   2.160301   2.853603   2.969199   1.096203
                    6          7          8          9         10
     6  H    0.000000
     7  H    1.847001   0.000000
     8  H    2.357426   3.682151   0.000000
     9  H    4.654932   4.882465   3.075280   0.000000
    10  H    4.660065   5.535362   2.424093   1.842533   0.000000
    11  H    3.691012   2.384609   4.314765   3.772366   5.142571
    12  H    4.140512   3.492496   3.857874   2.479225   3.999759
    13  H    4.140512   3.492496   3.857874   2.479225   3.999759
                   11         12         13
    11  H    0.000000
    12  H    1.772552   0.000000
    13  H    1.772552   1.760286   0.000000
 Stoichiometry    C5H8
 Framework group  CS[SG(C5H6),X(H2)]
 Deg. of freedom    22
 Full point group                 CS      NOp   2
 Largest Abelian subgroup         CS      NOp   2
 Largest concise Abelian subgroup CS      NOp   2
                         Standard orientation:                         
 ---------------------------------------------------------------------
 Center     Atomic      Atomic             Coordinates (Angstroms)
 Number     Number       Type             X           Y           Z
 ---------------------------------------------------------------------
      1          6           0       -0.585197    1.730505    0.000000
      2          6           0        0.000000    0.525074    0.000000
      3          6           0       -0.824614   -0.685746    0.000000
      4          6           0       -0.377681   -1.944706    0.000000
      5          6           0        1.500138    0.376209    0.000000
      6          1           0       -1.665557    1.835326    0.000000
      7          1           0       -0.007125    2.648356    0.000000
      8          1           0       -1.899186   -0.510495    0.000000
      9          1           0        0.679882   -2.185533    0.000000
     10          1           0       -1.062228   -2.785518    0.000000
     11          1           0        1.993505    1.350727    0.000000
     12          1           0        1.842418   -0.180436    0.880143
     13          1           0        1.842418   -0.180436   -0.880143
 ---------------------------------------------------------------------
 Rotational constants (GHZ):           8.5482269           4.1746643           2.8543349
 General basis read from cards:  (5D, 7F)
 There are   201 symmetry adapted cartesian basis functions of A'  symmetry.
 There are    94 symmetry adapted cartesian basis functions of A"  symmetry.
 There are   174 symmetry adapted basis functions of A'  symmetry.
 There are    88 symmetry adapted basis functions of A"  symmetry.
   262 basis functions,   399 primitive gaussians,   295 cartesian basis functions
    19 alpha electrons       19 beta electrons
       nuclear repulsion energy       160.4284643962 Hartrees.
 NAtoms=   13 NActive=   13 NUniq=   12 SFac= 1.17D+00 NAtFMM=   60 NAOKFM=F Big=F
 Integral buffers will be    131072 words long.
 Raffenetti 2 integral format.
 Two-electron integral symmetry is turned on.
 One-electron integrals computed using PRISM.
 NBasis=   262 RedAO= T EigKep=  1.16D-04  NBF=   174    88
 NBsUse=   262 1.00D-06 EigRej= -1.00D+00 NBFU=   174    88
 ExpMin= 7.42D-02 ExpMax= 7.32D+03 ExpMxC= 2.50D+02 IAcc=3 IRadAn=         5 AccDes= 0.00D+00
 Harris functional with IExCor=  402 and IRadAn=       5 diagonalized for initial guess.
 HarFok:  IExCor=  402 AccDes= 0.00D+00 IRadAn=         5 IDoV= 1 UseB2=F ITyADJ=14
 ICtDFT=  3500011 ScaDFX=  1.000000  1.000000  1.000000  1.000000
 FoFCou: FMM=F IPFlag=           0 FMFlag=      100000 FMFlg1=           0
         NFxFlg=           0 DoJE=T BraDBF=F KetDBF=T FulRan=T
         wScrn=  0.000000 ICntrl=       500 IOpCl=  0 I1Cent=   200000004 NGrid=           0
         NMat0=    1 NMatS0=      1 NMatT0=    0 NMatD0=    1 NMtDS0=    0 NMtDT0=    0
 Petite list used in FoFCou.
 Initial guess orbital symmetries:
       Occupied  (A') (A') (A') (A') (A') (A') (A') (A') (A') (A')
                 (A') (A') (A") (A') (A') (A') (A') (A") (A")
       Virtual   (A") (A") (A') (A') (A') (A') (A') (A") (A') (A')
                 (A') (A') (A") (A') (A") (A') (A') (A') (A') (A")
                 (A') (A") (A') (A') (A") (A') (A") (A') (A') (A')
                 (A') (A') (A') (A') (A') (A') (A') (A') (A') (A')
                 (A') (A") (A') (A") (A") (A") (A') (A") (A') (A')
                 (A") (A') (A') (A") (A') (A") (A') (A') (A") (A')
                 (A") (A') (A') (A') (A") (A') (A') (A') (A") (A')
                 (A") (A") (A') (A") (A') (A') (A") (A') (A") (A")
                 (A') (A') (A") (A') (A') (A') (A") (A') (A") (A')
                 (A") (A') (A') (A') (A') (A') (A") (A') (A') (A')
                 (A") (A') (A') (A') (A') (A') (A') (A') (A') (A')
                 (A') (A") (A') (A') (A') (A') (A') (A") (A") (A")
                 (A") (A') (A') (A') (A") (A") (A") (A') (A") (A')
                 (A") (A') (A") (A') (A') (A') (A") (A') (A') (A')
                 (A') (A") (A') (A') (A") (A") (A') (A') (A") (A")
                 (A") (A') (A") (A') (A") (A') (A") (A") (A') (A")
                 (A') (A') (A') (A") (A') (A") (A') (A") (A') (A')
                 (A') (A') (A") (A") (A") (A") (A') (A') (A") (A")
                 (A') (A') (A") (A') (A") (A") (A') (A') (A") (A")
                 (A') (A') (A") (A') (A") (A') (A') (A') (A") (A")
                 (A') (A") (A') (A') (A') (A') (A") (A") (A') (A')
                 (A') (A') (A") (A') (A') (A') (A") (A') (A') (A')
                 (A") (A') (A") (A') (A') (A") (A") (A") (A') (A')
                 (A') (A') (A') (A') (A') (A") (A') (A') (A') (A')
                 (A') (A') (A')
 The electronic state of the initial guess is 1-A'.
 Keep R1 ints in memory in symmetry-blocked form, NReq=894031157.
 Requested convergence on RMS density matrix=1.00D-08 within 128 cycles.
 Requested convergence on MAX density matrix=1.00D-06.
 Requested convergence on             energy=1.00D-06.
 No special actions if energy rises.
 Integral accuracy reduced to 1.0D-05 until final iterations.
 Initial convergence to 1.0D-05 achieved.  Increase integral accuracy.
 SCF Done:  E(RB3LYP) =  -195.393082651     A.U. after   12 cycles
            NFock= 12  Conv=0.83D-08     -V/T= 2.0046

 **********************************************************************

            Population analysis using the SCF Density.

 **********************************************************************

 Orbital symmetries:
       Occupied  (A') (A') (A') (A') (A') (A') (A') (A') (A') (A')
                 (A') (A') (A") (A') (A') (A') (A') (A") (A")
       Virtual   (A") (A') (A') (A') (A") (A') (A') (A") (A') (A')
                 (A') (A') (A") (A') (A") (A') (A') (A') (A") (A')
                 (A') (A") (A') (A") (A') (A') (A') (A") (A') (A')
                 (A') (A') (A') (A') (A') (A') (A') (A') (A') (A')
                 (A') (A') (A") (A") (A") (A") (A') (A") (A') (A')
                 (A") (A') (A') (A") (A') (A") (A') (A') (A") (A')
                 (A') (A") (A') (A') (A") (A') (A') (A') (A') (A")
                 (A") (A') (A") (A') (A") (A') (A") (A') (A") (A")
                 (A') (A') (A") (A') (A') (A') (A') (A") (A") (A')
                 (A") (A') (A') (A') (A') (A') (A") (A') (A') (A')
                 (A") (A') (A') (A') (A') (A') (A') (A') (A') (A')
                 (A') (A") (A') (A') (A') (A') (A') (A") (A") (A")
                 (A") (A') (A') (A') (A") (A") (A") (A") (A') (A')
                 (A") (A') (A") (A') (A') (A') (A") (A') (A') (A')
                 (A") (A') (A') (A") (A') (A") (A') (A") (A') (A")
                 (A") (A') (A") (A') (A") (A') (A") (A") (A') (A")
                 (A') (A') (A') (A') (A") (A') (A") (A') (A") (A')
                 (A') (A') (A") (A") (A") (A") (A') (A') (A") (A")
                 (A') (A') (A") (A') (A") (A") (A') (A") (A') (A")
                 (A') (A') (A") (A') (A") (A') (A') (A') (A") (A")
                 (A') (A") (A') (A') (A') (A') (A") (A") (A') (A')
                 (A') (A") (A') (A') (A') (A') (A") (A') (A') (A')
                 (A") (A') (A") (A') (A') (A") (A") (A") (A') (A')
                 (A') (A') (A') (A') (A') (A") (A') (A') (A') (A')
                 (A') (A') (A')
 The electronic state is 1-A'.
 Alpha  occ. eigenvalues --  -10.18855 -10.17937 -10.17037 -10.17036 -10.16768
 Alpha  occ. eigenvalues --   -0.82534  -0.74553  -0.69427  -0.60525  -0.52646
 Alpha  occ. eigenvalues --   -0.48028  -0.46412  -0.42255  -0.40518  -0.39002
 Alpha  occ. eigenvalues --   -0.37582  -0.34392  -0.31460  -0.24002
 Alpha virt. eigenvalues --   -0.03911   0.01837   0.03826   0.04226   0.05145
 Alpha virt. eigenvalues --    0.06620   0.07526   0.08610   0.10118   0.10992
 Alpha virt. eigenvalues --    0.12845   0.16184   0.16574   0.17439   0.18452
 Alpha virt. eigenvalues --    0.22660   0.23901   0.25184   0.25710   0.26232
 Alpha virt. eigenvalues --    0.27527   0.27741   0.29574   0.30475   0.32425
 Alpha virt. eigenvalues --    0.32723   0.33668   0.35461   0.35696   0.36169
 Alpha virt. eigenvalues --    0.37942   0.39592   0.40940   0.41745   0.44692
 Alpha virt. eigenvalues --    0.49942   0.51495   0.52937   0.57121   0.58934
 Alpha virt. eigenvalues --    0.61842   0.62002   0.63919   0.67373   0.71343
 Alpha virt. eigenvalues --    0.76206   0.81245   0.84461   0.86875   0.92234
 Alpha virt. eigenvalues --    0.92438   0.92751   0.95412   0.96628   0.99483
 Alpha virt. eigenvalues --    0.99714   1.01823   1.03342   1.04653   1.05565
 Alpha virt. eigenvalues --    1.08756   1.09337   1.09971   1.12094   1.13827
 Alpha virt. eigenvalues --    1.15047   1.17138   1.20134   1.20686   1.21489
 Alpha virt. eigenvalues --    1.24517   1.26266   1.27905   1.32738   1.33886
 Alpha virt. eigenvalues --    1.34023   1.37413   1.39382   1.40868   1.43268
 Alpha virt. eigenvalues --    1.45729   1.51395   1.51969   1.52337   1.54702
 Alpha virt. eigenvalues --    1.59957   1.60805   1.61200   1.65383   1.67796
 Alpha virt. eigenvalues --    1.72521   1.72842   1.73205   1.78340   1.79644
 Alpha virt. eigenvalues --    1.81710   1.85846   1.88747   1.91007   1.92445
 Alpha virt. eigenvalues --    1.94945   1.97324   2.03311   2.04612   2.13251
 Alpha virt. eigenvalues --    2.15137   2.23985   2.28488   2.32522   2.39395
 Alpha virt. eigenvalues --    2.46247   2.54298   2.54559   2.66440   2.68626
 Alpha virt. eigenvalues --    2.79673   2.89862   2.93763   3.00451   3.12318
 Alpha virt. eigenvalues --    3.16626   3.18342   3.21318   3.25380   3.25518
 Alpha virt. eigenvalues --    3.28221   3.33660   3.37324   3.37463   3.39876
 Alpha virt. eigenvalues --    3.39929   3.47971   3.50386   3.55846   3.57730
 Alpha virt. eigenvalues --    3.59871   3.60082   3.63152   3.67911   3.72154
 Alpha virt. eigenvalues --    3.73949   3.77420   3.82911   3.84459   3.85067
 Alpha virt. eigenvalues --    3.85323   3.90644   3.95217   3.96952   3.97199
 Alpha virt. eigenvalues --    4.00141   4.01455   4.03609   4.05360   4.08484
 Alpha virt. eigenvalues --    4.10917   4.13383   4.14381   4.15392   4.18121
 Alpha virt. eigenvalues --    4.18416   4.21833   4.25128   4.26905   4.29014
 Alpha virt. eigenvalues --    4.29445   4.31131   4.31688   4.31968   4.33044
 Alpha virt. eigenvalues --    4.33849   4.37339   4.38900   4.39672   4.41116
 Alpha virt. eigenvalues --    4.44611   4.45349   4.47395   4.48981   4.49637
 Alpha virt. eigenvalues --    4.50437   4.52298   4.53629   4.55233   4.56260
 Alpha virt. eigenvalues --    4.59373   4.62862   4.64390   4.65714   4.67996
 Alpha virt. eigenvalues --    4.69221   4.73520   4.75509   4.77976   4.81487
 Alpha virt. eigenvalues --    4.82564   4.85824   4.91399   4.92176   4.94864
 Alpha virt. eigenvalues --    4.98534   5.03302   5.04336   5.11646   5.14717
 Alpha virt. eigenvalues --    5.16909   5.21399   5.27886   5.30666   5.31453
 Alpha virt. eigenvalues --    5.33414   5.37683   5.37820   5.41210   5.42118
 Alpha virt. eigenvalues --    5.43621   5.51927   5.52721   5.57592   5.65630
 Alpha virt. eigenvalues --    5.65996   5.70097   5.70373   5.72297   5.77949
 Alpha virt. eigenvalues --    5.77969   5.82682   5.84920   5.86348   5.87830
 Alpha virt. eigenvalues --    5.89394   5.98400   6.01524   6.03496   6.04710
 Alpha virt. eigenvalues --    6.12836   6.19801   6.23025   6.24775   6.37429
 Alpha virt. eigenvalues --    6.52693   6.92863   7.60121
          Condensed to atoms (all electrons):
               1          2          3          4          5          6
     1  C    4.824716   0.612161  -0.095804  -0.004270  -0.052977   0.442792
     2  C    0.612161   4.931706   0.377985  -0.083200   0.304906  -0.053704
     3  C   -0.095804   0.377985   4.866270   0.623425  -0.064425  -0.009181
     4  C   -0.004270  -0.083200   0.623425   4.751777  -0.011917   0.001189
     5  C   -0.052977   0.304906  -0.064425  -0.011917   4.633505   0.006882
     6  H    0.442792  -0.053704  -0.009181   0.001189   0.006882   0.598814
     7  H    0.428647  -0.037375   0.009038  -0.001103  -0.010162  -0.030945
     8  H   -0.005587  -0.055436   0.449178  -0.033069   0.007172   0.001803
     9  H   -0.000008  -0.012922  -0.049016   0.436701   0.005421   0.000033
    10  H   -0.000871   0.009194  -0.034265   0.430035  -0.001393  -0.000101
    11  H   -0.006964  -0.032030   0.007025   0.001274   0.422335   0.000333
    12  H   -0.003161  -0.052535   0.001373  -0.002374   0.439154  -0.000486
    13  H   -0.003161  -0.052535   0.001373  -0.002374   0.439154  -0.000486
               7          8          9         10         11         12
     1  C    0.428647  -0.005587  -0.000008  -0.000871  -0.006964  -0.003161
     2  C   -0.037375  -0.055436  -0.012922   0.009194  -0.032030  -0.052535
     3  C    0.009038   0.449178  -0.049016  -0.034265   0.007025   0.001373
     4  C   -0.001103  -0.033069   0.436701   0.430035   0.001274  -0.002374
     5  C   -0.010162   0.007172   0.005421  -0.001393   0.422335   0.439154
     6  H   -0.030945   0.001803   0.000033  -0.000101   0.000333  -0.000486
     7  H    0.599003   0.000252  -0.000073   0.000051   0.002287   0.000186
     8  H    0.000252   0.626684   0.007247  -0.009799  -0.000329  -0.000011
     9  H   -0.000073   0.007247   0.600964  -0.031580   0.000593  -0.002524
    10  H    0.000051  -0.009799  -0.031580   0.591393   0.000036   0.000104
    11  H    0.002287  -0.000329   0.000593   0.000036   0.615968  -0.020244
    12  H    0.000186  -0.000011  -0.002524   0.000104  -0.020244   0.642425
    13  H    0.000186  -0.000011  -0.002524   0.000104  -0.020244  -0.041277
              13
     1  C   -0.003161
     2  C   -0.052535
     3  C    0.001373
     4  C   -0.002374
     5  C    0.439154
     6  H   -0.000486
     7  H    0.000186
     8  H   -0.000011
     9  H   -0.002524
    10  H    0.000104
    11  H   -0.020244
    12  H   -0.041277
    13  H    0.642425
 Mulliken charges:
               1
     1  C   -0.135513
     2  C    0.143787
     3  C   -0.082976
     4  C   -0.106095
     5  C   -0.117654
     6  H    0.043057
     7  H    0.040011
     8  H    0.011906
     9  H    0.047688
    10  H    0.047091
    11  H    0.029960
    12  H    0.039369
    13  H    0.039369
 Sum of Mulliken charges =  -0.00000
 Mulliken charges with hydrogens summed into heavy atoms:
               1
     1  C   -0.052445
     2  C    0.143787
     3  C   -0.071069
     4  C   -0.011315
     5  C   -0.008957
 Electronic spatial extent (au):  <R**2>=            470.9626
 Charge=             -0.0000 electrons
 Dipole moment (field-independent basis, Debye):
    X=              0.2834    Y=              0.0091    Z=             -0.0000  Tot=              0.2836
 Quadrupole moment (field-independent basis, Debye-Ang):
   XX=            -30.0863   YY=            -30.7197   ZZ=            -35.5167
   XY=              0.0784   XZ=              0.0000   YZ=             -0.0000
 Traceless Quadrupole moment (field-independent basis, Debye-Ang):
   XX=              2.0213   YY=              1.3878   ZZ=             -3.4091
   XY=              0.0784   XZ=              0.0000   YZ=             -0.0000
 Octapole moment (field-independent basis, Debye-Ang**2):
  XXX=             -2.9735  YYY=              0.0554  ZZZ=             -0.0000  XYY=              0.3047
  XXY=             -0.0911  XXZ=              0.0000  XZZ=              2.6704  YZZ=              0.0474
  YYZ=              0.0000  XYZ=             -0.0000
 Hexadecapole moment (field-independent basis, Debye-Ang**3):
 XXXX=           -224.2821 YYYY=           -372.1194 ZZZZ=            -50.8218 XXXY=            -17.1150
 XXXZ=             -0.0000 YYYX=             -8.3741 YYYZ=              0.0000 ZZZX=              0.0000
 ZZZY=              0.0000 XXYY=            -97.2046 XXZZ=            -47.8609 YYZZ=            -84.0334
 XXYZ=             -0.0000 YYXZ=              0.0000 ZZXY=             -6.7321
 N-N= 1.604284643962D+02 E-N=-7.731960862852D+02  KE= 1.945009606314D+02
 Symmetry A'   KE= 1.882960310758D+02
 Symmetry A"   KE= 6.204929555577D+00
 Calling FoFJK, ICntrl=      2127 FMM=F ISym2X=1 I1Cent= 0 IOpClX= 0 NMat=1 NMatS=1 NMatT=0.
 ***** Axes restored to original set *****
 -------------------------------------------------------------------
 Center     Atomic                   Forces (Hartrees/Bohr)
 Number     Number              X              Y              Z
 -------------------------------------------------------------------
      1        6          -0.000439192    0.000542138   -0.000000000
      2        6           0.001297547    0.000588175   -0.000000000
      3        6          -0.001694707   -0.000609364    0.000000000
      4        6           0.000246473   -0.000326630    0.000000000
      5        6           0.001533505   -0.000118542   -0.000000000
      6        1           0.002078379   -0.000530116   -0.000000000
      7        1          -0.000850427   -0.002055973    0.000000000
      8        1           0.002183351   -0.000783467   -0.000000000
      9        1          -0.002008052    0.000641970   -0.000000000
     10        1           0.001067279    0.002051849   -0.000000000
     11        1          -0.001394036   -0.002261646   -0.000000000
     12        1          -0.001010060    0.001430803   -0.001944155
     13        1          -0.001010060    0.001430803    0.001944155
 -------------------------------------------------------------------
 Cartesian Forces:  Max     0.002261646 RMS     0.001174198

 GradGradGradGradGradGradGradGradGradGradGradGradGradGradGradGradGradGrad
 Berny optimization.
 FormGI is forming the generalized inverse of G from B-inverse, IUseBI=4.
 Internal  Forces:  Max     0.002647667 RMS     0.001138170
 Search for a local minimum.
 Step number   1 out of a maximum of   58
 All quantities printed in internal units (Hartrees-Bohrs-Radians)
 Mixed Optimization -- RFO/linear search
 Second derivative matrix not updated -- first step.
 ITU=  0
     Eigenvalues ---    0.00667   0.01230   0.01473   0.02112   0.02883
     Eigenvalues ---    0.02883   0.02936   0.02936   0.07107   0.07186
     Eigenvalues ---    0.16000   0.16000   0.16000   0.16000   0.16000
     Eigenvalues ---    0.16000   0.16000   0.16000   0.22000   0.25000
     Eigenvalues ---    0.25000   0.31602   0.34106   0.34106   0.34549
     Eigenvalues ---    0.34955   0.35346   0.35430   0.35440   0.35487
     Eigenvalues ---    0.36352   0.57212   0.58125
 RFO step:  Lambda=-1.73912559D-04 EMin= 6.66655486D-03
 Linear search not attempted -- first point.
 Iteration  1 RMS(Cart)=  0.00519539 RMS(Int)=  0.00000536
 Iteration  2 RMS(Cart)=  0.00000955 RMS(Int)=  0.00000054
 Iteration  3 RMS(Cart)=  0.00000000 RMS(Int)=  0.00000054
 ClnCor:  largest displacement from symmetrization is 3.82D-12 for atom    13.
 Variable       Old X    -DE/DX   Delta X   Delta X   Delta X     New X
                                 (Linear)    (Quad)   (Total)
    R1        2.53218  -0.00218   0.00000  -0.00381  -0.00381   2.52836
    R2        2.05117  -0.00212   0.00000  -0.00600  -0.00600   2.04518
    R3        2.04982  -0.00219   0.00000  -0.00619  -0.00619   2.04364
    R4        2.76835  -0.00069   0.00000  -0.00190  -0.00190   2.76646
    R5        2.84877  -0.00192   0.00000  -0.00607  -0.00607   2.84271
    R6        2.52456  -0.00246   0.00000  -0.00424  -0.00424   2.52032
    R7        2.05748  -0.00228   0.00000  -0.00652  -0.00652   2.05095
    R8        2.04967  -0.00210   0.00000  -0.00593  -0.00593   2.04374
    R9        2.04891  -0.00226   0.00000  -0.00638  -0.00638   2.04253
   R10        2.06413  -0.00265   0.00000  -0.00766  -0.00766   2.05647
   R11        2.07152  -0.00260   0.00000  -0.00763  -0.00763   2.06390
   R12        2.07152  -0.00260   0.00000  -0.00763  -0.00763   2.06390
    A1        2.11947  -0.00019   0.00000  -0.00118  -0.00118   2.11829
    A2        2.12759  -0.00029   0.00000  -0.00182  -0.00182   2.12577
    A3        2.03613   0.00048   0.00000   0.00300   0.00300   2.03913
    A4        2.09175  -0.00058   0.00000  -0.00231  -0.00231   2.08945
    A5        2.12166  -0.00022   0.00000  -0.00088  -0.00088   2.12079
    A6        2.06977   0.00080   0.00000   0.00318   0.00318   2.07295
    A7        2.20258  -0.00012   0.00000  -0.00057  -0.00057   2.20202
    A8        2.00702   0.00050   0.00000   0.00299   0.00299   2.01001
    A9        2.07359  -0.00037   0.00000  -0.00242  -0.00242   2.07116
   A10        2.13582   0.00007   0.00000   0.00046   0.00046   2.13628
   A11        2.11716  -0.00052   0.00000  -0.00323  -0.00323   2.11393
   A12        2.03021   0.00044   0.00000   0.00276   0.00276   2.03297
   A13        1.94053  -0.00027   0.00000  -0.00208  -0.00208   1.93845
   A14        1.93999  -0.00019   0.00000  -0.00099  -0.00099   1.93900
   A15        1.93999  -0.00019   0.00000  -0.00099  -0.00099   1.93900
   A16        1.88810   0.00018   0.00000   0.00073   0.00072   1.88883
   A17        1.88810   0.00018   0.00000   0.00073   0.00072   1.88883
   A18        1.86429   0.00033   0.00000   0.00288   0.00288   1.86717
    D1        0.00000   0.00000   0.00000  -0.00000   0.00000   0.00000
    D2        3.14159   0.00000   0.00000   0.00000   0.00000   3.14159
    D3        3.14159  -0.00000   0.00000  -0.00000   0.00000   3.14159
    D4        0.00000  -0.00000   0.00000  -0.00000   0.00000   0.00000
    D5        3.14159   0.00000   0.00000   0.00000   0.00000   3.14159
    D6        0.00000   0.00000   0.00000   0.00000   0.00000   0.00000
    D7        0.00000   0.00000   0.00000   0.00000   0.00000   0.00000
    D8        3.14159   0.00000   0.00000   0.00000   0.00000   3.14159
    D9        0.00000   0.00000   0.00000  -0.00000   0.00000   0.00000
   D10        2.10454  -0.00008   0.00000  -0.00116  -0.00116   2.10338
   D11       -2.10454   0.00008   0.00000   0.00116   0.00116  -2.10338
   D12        3.14159   0.00000   0.00000  -0.00000   0.00000   3.14159
   D13       -1.03705  -0.00008   0.00000  -0.00116  -0.00116  -1.03821
   D14        1.03705   0.00008   0.00000   0.00116   0.00116   1.03821
   D15        0.00000   0.00000   0.00000   0.00000   0.00000   0.00000
   D16        3.14159   0.00000   0.00000   0.00000   0.00000   3.14159
   D17        3.14159   0.00000   0.00000   0.00000   0.00000   3.14159
   D18        0.00000   0.00000   0.00000   0.00000   0.00000   0.00000
         Item               Value     Threshold  Converged?
 Maximum Force            0.002648     0.000450     NO 
 RMS     Force            0.001138     0.000300     NO 
 Maximum Displacement     0.014301     0.001800     NO 
 RMS     Displacement     0.005193     0.001200     NO 
 Predicted change in Energy=-8.700140D-05
 GradGradGradGradGradGradGradGradGradGradGradGradGradGradGradGradGradGrad

                          Input orientation:                          
 ---------------------------------------------------------------------
 Center     Atomic      Atomic             Coordinates (Angstroms)
 Number     Number       Type             X           Y           Z
 ---------------------------------------------------------------------
      1          6           0       -0.582821    1.726545    0.000000
      2          6           0        0.002438    0.523389    0.000000
      3          6           0       -0.823454   -0.685346    0.000000
      4          6           0       -0.378474   -1.942619    0.000000
      5          6           0        1.499625    0.377325    0.000000
      6          1           0       -1.660226    1.828942    0.000000
      7          1           0       -0.005547    2.641030    0.000000
      8          1           0       -1.894875   -0.512221    0.000000
      9          1           0        0.675689   -2.184247    0.000000
     10          1           0       -1.064391   -2.777950    0.000000
     11          1           0        1.987524    1.350060    0.000000
     12          1           0        1.840643   -0.175790    0.877837
     13          1           0        1.840643   -0.175790   -0.877837
 ---------------------------------------------------------------------
                    Distance matrix (angstroms):
                    1          2          3          4          5
     1  C    0.000000
     2  C    1.337951   0.000000
     3  C    2.423865   1.463945   0.000000
     4  C    3.674850   2.495253   1.333695   0.000000
     5  C    2.481326   1.504295   2.554597   2.984861   0.000000
     6  H    1.082261   2.113983   2.649874   3.983411   3.477334
     7  H    1.081447   2.117656   3.425456   4.598795   2.718438
     8  H    2.594910   2.161546   1.085318   2.084588   3.509120
     9  H    4.108302   2.790082   2.119938   1.081501   2.690821
    10  H    4.530165   3.469433   2.106430   1.080861   4.065703
    11  H    2.597771   2.150338   3.470515   4.054588   1.088237
    12  H    3.203538   2.153706   2.850904   2.969303   1.092167
    13  H    3.203538   2.153706   2.850904   2.969303   1.092167
                    6          7          8          9         10
     6  H    0.000000
     7  H    1.843217   0.000000
     8  H    2.352893   3.675942   0.000000
     9  H    4.643511   4.873128   3.066508   0.000000
    10  H    4.645264   5.521458   2.413137   1.838577   0.000000
    11  H    3.679050   2.374644   4.305939   3.769912   5.133679
    12  H    4.128636   3.480444   3.851996   2.482259   3.997632
    13  H    4.128636   3.480444   3.851996   2.482259   3.997632
                   11         12         13
    11  H    0.000000
    12  H    1.766463   0.000000
    13  H    1.766463   1.755675   0.000000
 Stoichiometry    C5H8
 Framework group  CS[SG(C5H6),X(H2)]
 Deg. of freedom    22
 Full point group                 CS      NOp   2
 Largest Abelian subgroup         CS      NOp   2
 Largest concise Abelian subgroup CS      NOp   2
                         Standard orientation:                         
 ---------------------------------------------------------------------
 Center     Atomic      Atomic             Coordinates (Angstroms)
 Number     Number       Type             X           Y           Z
 ---------------------------------------------------------------------
      1          6           0       -0.589445    1.724772    0.000000
      2          6           0       -0.000000    0.523660    0.000000
      3          6           0       -0.821678   -0.687943    0.000000
      4          6           0       -0.372323   -1.943659    0.000000
      5          6           0        1.497687    0.382811    0.000000
      6          1           0       -1.667200    1.823416    0.000000
      7          1           0       -0.015359    2.641261    0.000000
      8          1           0       -1.893695   -0.518550    0.000000
      9          1           0        0.682676   -2.181614    0.000000
     10          1           0       -1.055327   -2.781374    0.000000
     11          1           0        1.982196    1.357239    0.000000
     12          1           0        1.840629   -0.169114    0.877837
     13          1           0        1.840629   -0.169114   -0.877837
 ---------------------------------------------------------------------
 Rotational constants (GHZ):           8.5788393           4.1862954           2.8629204
 Basis read from rwf:  (5D, 7F)
 There are   201 symmetry adapted cartesian basis functions of A'  symmetry.
 There are    94 symmetry adapted cartesian basis functions of A"  symmetry.
 There are   174 symmetry adapted basis functions of A'  symmetry.
 There are    88 symmetry adapted basis functions of A"  symmetry.
   262 basis functions,   399 primitive gaussians,   295 cartesian basis functions
    19 alpha electrons       19 beta electrons
       nuclear repulsion energy       160.7242715749 Hartrees.
 NAtoms=   13 NActive=   13 NUniq=   12 SFac= 1.17D+00 NAtFMM=   60 NAOKFM=F Big=F
 Integral buffers will be    131072 words long.
 Raffenetti 2 integral format.
 Two-electron integral symmetry is turned on.
 One-electron integrals computed using PRISM.
 NBasis=   262 RedAO= T EigKep=  1.15D-04  NBF=   174    88
 NBsUse=   262 1.00D-06 EigRej= -1.00D+00 NBFU=   174    88
 Initial guess from the checkpoint file:  "/wrk/irikura/Gau-24616.chk"
 B after Tr=    -0.000000   -0.000000   -0.000000
         Rot=    0.999999   -0.000000   -0.000000   -0.001671 Ang=  -0.19 deg.
 Initial guess orbital symmetries:
       Occupied  (A') (A') (A') (A') (A') (A') (A') (A') (A') (A')
                 (A') (A') (A") (A') (A') (A') (A') (A") (A")
       Virtual   (A") (A') (A') (A') (A") (A') (A') (A") (A') (A')
                 (A') (A') (A") (A') (A") (A') (A') (A') (A") (A')
                 (A') (A") (A') (A") (A') (A') (A') (A") (A') (A')
                 (A') (A') (A') (A') (A') (A') (A') (A') (A') (A')
                 (A') (A') (A") (A") (A") (A") (A') (A") (A') (A')
                 (A") (A') (A') (A") (A') (A") (A') (A') (A") (A')
                 (A') (A") (A') (A') (A") (A') (A') (A') (A') (A")
                 (A") (A') (A") (A') (A") (A') (A") (A') (A") (A")
                 (A') (A') (A") (A') (A') (A') (A') (A") (A") (A')
                 (A") (A') (A') (A') (A') (A') (A") (A') (A') (A')
                 (A") (A') (A') (A') (A') (A') (A') (A') (A') (A')
                 (A') (A") (A') (A') (A') (A') (A') (A") (A") (A")
                 (A") (A') (A') (A') (A") (A") (A") (A") (A') (A')
                 (A") (A') (A") (A') (A') (A') (A") (A') (A') (A')
                 (A") (A') (A') (A") (A') (A") (A') (A") (A') (A")
                 (A") (A') (A") (A') (A") (A') (A") (A") (A') (A")
                 (A') (A') (A') (A') (A") (A') (A") (A') (A") (A')
                 (A') (A') (A") (A") (A") (A") (A') (A') (A") (A")
                 (A') (A') (A") (A') (A") (A") (A') (A") (A') (A")
                 (A') (A') (A") (A') (A") (A') (A') (A') (A") (A")
                 (A') (A") (A') (A') (A') (A') (A") (A") (A') (A')
                 (A') (A") (A') (A') (A') (A') (A") (A') (A') (A')
                 (A") (A') (A") (A') (A') (A") (A") (A") (A') (A')
                 (A') (A') (A') (A') (A') (A") (A') (A') (A') (A')
                 (A') (A') (A')
 Keep R1 ints in memory in symmetry-blocked form, NReq=894031157.
 Requested convergence on RMS density matrix=1.00D-08 within 128 cycles.
 Requested convergence on MAX density matrix=1.00D-06.
 Requested convergence on             energy=1.00D-06.
 No special actions if energy rises.
 SCF Done:  E(RB3LYP) =  -195.393168233     A.U. after    8 cycles
            NFock=  8  Conv=0.52D-08     -V/T= 2.0043
 Calling FoFJK, ICntrl=      2127 FMM=F ISym2X=1 I1Cent= 0 IOpClX= 0 NMat=1 NMatS=1 NMatT=0.
 ***** Axes restored to original set *****
 -------------------------------------------------------------------
 Center     Atomic                   Forces (Hartrees/Bohr)
 Number     Number              X              Y              Z
 -------------------------------------------------------------------
      1        6          -0.000428685    0.000521364   -0.000000000
      2        6           0.000358576   -0.000223809    0.000000000
      3        6          -0.000370265    0.000329116    0.000000000
      4        6           0.000290592   -0.000468739    0.000000000
      5        6           0.000200580   -0.000153418    0.000000000
      6        1          -0.000002795   -0.000076763   -0.000000000
      7        1           0.000095728   -0.000011344   -0.000000000
      8        1           0.000017974   -0.000032972    0.000000000
      9        1           0.000039172    0.000047692    0.000000000
     10        1          -0.000120026    0.000021708   -0.000000000
     11        1          -0.000043286    0.000002750    0.000000000
     12        1          -0.000018782    0.000022207   -0.000022759
     13        1          -0.000018782    0.000022207    0.000022759
 -------------------------------------------------------------------
 Cartesian Forces:  Max     0.000521364 RMS     0.000181694

 GradGradGradGradGradGradGradGradGradGradGradGradGradGradGradGradGradGrad
 Berny optimization.
 Using GEDIIS/GDIIS optimizer.
 FormGI is forming the generalized inverse of G from B-inverse, IUseBI=4.
 Internal  Forces:  Max     0.000536394 RMS     0.000114655
 Search for a local minimum.
 Step number   2 out of a maximum of   58
 All quantities printed in internal units (Hartrees-Bohrs-Radians)
 Mixed Optimization -- En-DIIS/RFO-DIIS
 Update second derivatives using D2CorX and points    1    2
 DE= -8.56D-05 DEPred=-8.70D-05 R= 9.84D-01
 TightC=F SS=  1.41D+00  RLast= 2.29D-02 DXNew= 5.0454D-01 6.8725D-02
 Trust test= 9.84D-01 RLast= 2.29D-02 DXMaxT set to 3.00D-01
 ITU=  1  0
 Use linear search instead of GDIIS.
     Eigenvalues ---    0.00667   0.01230   0.01471   0.02109   0.02883
     Eigenvalues ---    0.02883   0.02936   0.02936   0.07130   0.07188
     Eigenvalues ---    0.15676   0.16000   0.16000   0.16000   0.16000
     Eigenvalues ---    0.16000   0.16000   0.16016   0.21985   0.24874
     Eigenvalues ---    0.25087   0.31788   0.33530   0.34106   0.34460
     Eigenvalues ---    0.34874   0.35295   0.35435   0.35440   0.35543
     Eigenvalues ---    0.36640   0.57619   0.60720
 RFO step:  Lambda=-1.36227795D-06 EMin= 6.66655486D-03
 Quartic linear search produced a step of -0.01914.
 Iteration  1 RMS(Cart)=  0.00033973 RMS(Int)=  0.00000009
 Iteration  2 RMS(Cart)=  0.00000011 RMS(Int)=  0.00000001
 ClnCor:  largest displacement from symmetrization is 1.62D-12 for atom    13.
 Variable       Old X    -DE/DX   Delta X   Delta X   Delta X     New X
                                 (Linear)    (Quad)   (Total)
    R1        2.52836   0.00054   0.00007   0.00082   0.00089   2.52925
    R2        2.04518  -0.00000   0.00011  -0.00018  -0.00006   2.04511
    R3        2.04364   0.00004   0.00012  -0.00005   0.00007   2.04370
    R4        2.76646   0.00017   0.00004   0.00040   0.00043   2.76689
    R5        2.84271   0.00013   0.00012   0.00024   0.00035   2.84306
    R6        2.52032   0.00045   0.00008   0.00064   0.00072   2.52104
    R7        2.05095  -0.00002   0.00012  -0.00024  -0.00012   2.05084
    R8        2.04374   0.00003   0.00011  -0.00009   0.00003   2.04377
    R9        2.04253   0.00006   0.00012  -0.00001   0.00011   2.04264
   R10        2.05647  -0.00002   0.00015  -0.00026  -0.00011   2.05636
   R11        2.06390  -0.00004   0.00015  -0.00031  -0.00016   2.06373
   R12        2.06390  -0.00004   0.00015  -0.00031  -0.00016   2.06373
    A1        2.11829  -0.00004   0.00002  -0.00030  -0.00028   2.11801
    A2        2.12577  -0.00007   0.00003  -0.00046  -0.00043   2.12534
    A3        2.03913   0.00011  -0.00006   0.00077   0.00071   2.03983
    A4        2.08945  -0.00010   0.00004  -0.00047  -0.00043   2.08902
    A5        2.12079   0.00015   0.00002   0.00058   0.00059   2.12138
    A6        2.07295  -0.00005  -0.00006  -0.00010  -0.00016   2.07279
    A7        2.20202  -0.00006   0.00001  -0.00026  -0.00025   2.20177
    A8        2.01001   0.00006  -0.00006   0.00039   0.00033   2.01034
    A9        2.07116  -0.00000   0.00005  -0.00013  -0.00008   2.07108
   A10        2.13628  -0.00000  -0.00001   0.00000  -0.00001   2.13627
   A11        2.11393  -0.00011   0.00006  -0.00075  -0.00069   2.11324
   A12        2.03297   0.00011  -0.00005   0.00075   0.00070   2.03367
   A13        1.93845  -0.00006   0.00004  -0.00045  -0.00041   1.93804
   A14        1.93900   0.00000   0.00002   0.00000   0.00002   1.93902
   A15        1.93900   0.00000   0.00002   0.00000   0.00002   1.93902
   A16        1.88883   0.00002  -0.00001   0.00012   0.00010   1.88893
   A17        1.88883   0.00002  -0.00001   0.00012   0.00010   1.88893
   A18        1.86717   0.00001  -0.00006   0.00025   0.00019   1.86736
    D1        0.00000  -0.00000   0.00000  -0.00000   0.00000   0.00000
    D2        3.14159  -0.00000   0.00000  -0.00000   0.00000   3.14159
    D3        3.14159  -0.00000   0.00000  -0.00000   0.00000   3.14159
    D4        0.00000  -0.00000   0.00000  -0.00000   0.00000   0.00000
    D5        3.14159   0.00000   0.00000   0.00000   0.00000   3.14159
    D6        0.00000   0.00000   0.00000   0.00000   0.00000   0.00000
    D7        0.00000   0.00000   0.00000   0.00000   0.00000   0.00000
    D8        3.14159   0.00000   0.00000   0.00000   0.00000   3.14159
    D9        0.00000   0.00000   0.00000   0.00000   0.00000   0.00000
   D10        2.10338  -0.00001   0.00002  -0.00016  -0.00013   2.10325
   D11       -2.10338   0.00001  -0.00002   0.00016   0.00013  -2.10325
   D12        3.14159   0.00000   0.00000   0.00000   0.00000   3.14159
   D13       -1.03821  -0.00001   0.00002  -0.00016  -0.00013  -1.03835
   D14        1.03821   0.00001  -0.00002   0.00016   0.00013   1.03835
   D15        0.00000   0.00000   0.00000   0.00000   0.00000   0.00000
   D16        3.14159   0.00000   0.00000   0.00000   0.00000   3.14159
   D17        3.14159   0.00000   0.00000   0.00000   0.00000   3.14159
   D18        0.00000   0.00000   0.00000   0.00000   0.00000   0.00000
         Item               Value     Threshold  Converged?
 Maximum Force            0.000536     0.000450     NO 
 RMS     Force            0.000115     0.000300     YES
 Maximum Displacement     0.000857     0.001800     YES
 RMS     Displacement     0.000340     0.001200     YES
 Predicted change in Energy=-7.132803D-07
 GradGradGradGradGradGradGradGradGradGradGradGradGradGradGradGradGradGrad

                          Input orientation:                          
 ---------------------------------------------------------------------
 Center     Atomic      Atomic             Coordinates (Angstroms)
 Number     Number       Type             X           Y           Z
 ---------------------------------------------------------------------
      1          6           0       -0.583199    1.726999    0.000000
      2          6           0        0.002629    0.523596    0.000000
      3          6           0       -0.823545   -0.685222    0.000000
      4          6           0       -0.378283   -1.942798    0.000000
      5          6           0        1.499961    0.377079    0.000000
      6          1           0       -1.660632    1.828763    0.000000
      7          1           0       -0.005793    2.641441    0.000000
      8          1           0       -1.894941   -0.512326    0.000000
      9          1           0        0.675927   -2.184290    0.000000
     10          1           0       -1.064712   -2.777787    0.000000
     11          1           0        1.987716    1.349821    0.000000
     12          1           0        1.840823   -0.175974    0.877830
     13          1           0        1.840823   -0.175974   -0.877830
 ---------------------------------------------------------------------
                    Distance matrix (angstroms):
                    1          2          3          4          5
     1  C    0.000000
     2  C    1.338422   0.000000
     3  C    2.424164   1.464174   0.000000
     4  C    3.675514   2.495636   1.334076   0.000000
     5  C    2.482305   1.504483   2.554831   2.984900   0.000000
     6  H    1.082228   2.114213   2.649685   3.983603   3.478036
     7  H    1.081482   2.117862   3.425698   4.599348   2.719308
     8  H    2.595235   2.161922   1.085256   2.084826   3.509473
     9  H    4.108963   2.790336   2.120288   1.081516   2.690658
    10  H    4.530447   3.469632   2.106417   1.080921   4.065799
    11  H    2.598436   2.150166   3.470531   4.054540   1.088179
    12  H    3.204337   2.153820   2.851101   2.969291   1.092081
    13  H    3.204337   2.153820   2.851101   2.969291   1.092081
                    6          7          8          9         10
     6  H    0.000000
     7  H    1.843621   0.000000
     8  H    2.352785   3.676293   0.000000
     9  H    4.643716   4.873646   3.066728   0.000000
    10  H    4.644935   5.521716   2.412797   1.839039   0.000000
    11  H    3.679651   2.375366   4.306114   3.769712   5.133660
    12  H    4.129133   3.481150   3.852227   2.482117   3.997769
    13  H    4.129133   3.481150   3.852227   2.482117   3.997769
                   11         12         13
    11  H    0.000000
    12  H    1.766412   0.000000
    13  H    1.766412   1.755661   0.000000
 Stoichiometry    C5H8
 Framework group  CS[SG(C5H6),X(H2)]
 Deg. of freedom    22
 Full point group                 CS      NOp   2
 Largest Abelian subgroup         CS      NOp   2
 Largest concise Abelian subgroup CS      NOp   2
                         Standard orientation:                         
 ---------------------------------------------------------------------
 Center     Atomic      Atomic             Coordinates (Angstroms)
 Number     Number       Type             X           Y           Z
 ---------------------------------------------------------------------
      1          6           0       -0.590379    1.724998    0.000000
      2          6           0        0.000000    0.523821    0.000000
      3          6           0       -0.821594   -0.688115    0.000000
      4          6           0       -0.371575   -1.943997    0.000000
      5          6           0        1.497875    0.382972    0.000000
      6          1           0       -1.668189    1.822683    0.000000
      7          1           0       -0.016438    2.641619    0.000000
      8          1           0       -1.893636   -0.519276    0.000000
      9          1           0        0.683541   -2.181497    0.000000
     10          1           0       -1.054839   -2.781578    0.000000
     11          1           0        1.981945    1.357553    0.000000
     12          1           0        1.840828   -0.168787    0.877830
     13          1           0        1.840828   -0.168787   -0.877830
 ---------------------------------------------------------------------
 Rotational constants (GHZ):           8.5745541           4.1856463           2.8621387
 Basis read from rwf:  (5D, 7F)
 There are   201 symmetry adapted cartesian basis functions of A'  symmetry.
 There are    94 symmetry adapted cartesian basis functions of A"  symmetry.
 There are   174 symmetry adapted basis functions of A'  symmetry.
 There are    88 symmetry adapted basis functions of A"  symmetry.
   262 basis functions,   399 primitive gaussians,   295 cartesian basis functions
    19 alpha electrons       19 beta electrons
       nuclear repulsion energy       160.7018479669 Hartrees.
 NAtoms=   13 NActive=   13 NUniq=   12 SFac= 1.17D+00 NAtFMM=   60 NAOKFM=F Big=F
 Integral buffers will be    131072 words long.
 Raffenetti 2 integral format.
 Two-electron integral symmetry is turned on.
 One-electron integrals computed using PRISM.
 NBasis=   262 RedAO= T EigKep=  1.15D-04  NBF=   174    88
 NBsUse=   262 1.00D-06 EigRej= -1.00D+00 NBFU=   174    88
 Initial guess from the checkpoint file:  "/wrk/irikura/Gau-24616.chk"
 B after Tr=     0.000000    0.000000    0.000000
         Rot=    1.000000   -0.000000    0.000000   -0.000153 Ang=  -0.02 deg.
 Initial guess orbital symmetries:
       Occupied  (A') (A') (A') (A') (A') (A') (A') (A') (A') (A')
                 (A') (A') (A") (A') (A') (A') (A') (A") (A")
       Virtual   (A") (A') (A') (A') (A") (A') (A') (A") (A') (A')
                 (A') (A') (A") (A') (A") (A') (A') (A') (A") (A')
                 (A') (A") (A') (A") (A') (A') (A') (A") (A') (A')
                 (A') (A') (A') (A') (A') (A') (A') (A') (A') (A')
                 (A') (A') (A") (A") (A") (A") (A') (A") (A') (A')
                 (A") (A') (A') (A") (A') (A") (A') (A') (A") (A')
                 (A') (A") (A') (A') (A") (A') (A') (A') (A') (A")
                 (A") (A') (A") (A') (A") (A') (A") (A') (A") (A")
                 (A') (A') (A") (A') (A') (A') (A') (A") (A") (A')
                 (A") (A') (A') (A') (A') (A') (A") (A') (A') (A')
                 (A") (A') (A') (A') (A') (A') (A') (A') (A') (A')
                 (A') (A') (A") (A') (A') (A') (A') (A") (A") (A")
                 (A") (A') (A') (A") (A') (A") (A") (A") (A') (A")
                 (A') (A') (A") (A') (A') (A") (A') (A') (A') (A')
                 (A") (A') (A') (A") (A') (A") (A') (A") (A") (A')
                 (A") (A') (A") (A') (A") (A') (A") (A") (A') (A")
                 (A') (A') (A') (A') (A") (A') (A") (A') (A") (A')
                 (A') (A') (A") (A") (A") (A") (A') (A') (A") (A")
                 (A') (A') (A") (A') (A") (A") (A') (A") (A') (A")
                 (A') (A') (A") (A') (A") (A') (A') (A') (A") (A")
                 (A') (A") (A') (A') (A') (A') (A") (A") (A') (A')
                 (A') (A") (A') (A') (A') (A') (A") (A') (A') (A')
                 (A") (A") (A') (A') (A') (A") (A") (A") (A') (A')
                 (A') (A') (A') (A') (A') (A") (A') (A') (A') (A')
                 (A') (A') (A')
 Keep R1 ints in memory in symmetry-blocked form, NReq=894031157.
 Requested convergence on RMS density matrix=1.00D-08 within 128 cycles.
 Requested convergence on MAX density matrix=1.00D-06.
 Requested convergence on             energy=1.00D-06.
 No special actions if energy rises.
 SCF Done:  E(RB3LYP) =  -195.393169055     A.U. after    6 cycles
            NFock=  6  Conv=0.80D-08     -V/T= 2.0043
 Calling FoFJK, ICntrl=      2127 FMM=F ISym2X=1 I1Cent= 0 IOpClX= 0 NMat=1 NMatS=1 NMatT=0.
 ***** Axes restored to original set *****
 -------------------------------------------------------------------
 Center     Atomic                   Forces (Hartrees/Bohr)
 Number     Number              X              Y              Z
 -------------------------------------------------------------------
      1        6          -0.000061886    0.000059205   -0.000000000
      2        6           0.000051631   -0.000016112    0.000000000
      3        6          -0.000048533    0.000062336   -0.000000000
      4        6           0.000067514   -0.000084083   -0.000000000
      5        6           0.000008765   -0.000024444   -0.000000000
      6        1          -0.000000653   -0.000042044   -0.000000000
      7        1           0.000040546   -0.000008398   -0.000000000
      8        1          -0.000005322   -0.000012998   -0.000000000
      9        1           0.000004793    0.000027581    0.000000000
     10        1          -0.000040701    0.000013933    0.000000000
     11        1           0.000004611    0.000028567    0.000000000
     12        1          -0.000010382   -0.000001771    0.000013735
     13        1          -0.000010382   -0.000001771   -0.000013735
 -------------------------------------------------------------------
 Cartesian Forces:  Max     0.000084083 RMS     0.000030615

 GradGradGradGradGradGradGradGradGradGradGradGradGradGradGradGradGradGrad
 Berny optimization.
 Using GEDIIS/GDIIS optimizer.
 FormGI is forming the generalized inverse of G from B-inverse, IUseBI=4.
 Internal  Forces:  Max     0.000055019 RMS     0.000017754
 Search for a local minimum.
 Step number   3 out of a maximum of   58
 All quantities printed in internal units (Hartrees-Bohrs-Radians)
 Mixed Optimization -- En-DIIS/RFO-DIIS
 Swapping is turned off.
 Update second derivatives using D2CorX and points    1    2    3
 DE= -8.22D-07 DEPred=-7.13D-07 R= 1.15D+00
 Trust test= 1.15D+00 RLast= 2.12D-03 DXMaxT set to 3.00D-01
 ITU=  0  1  0
     Eigenvalues ---    0.00667   0.01230   0.01471   0.02109   0.02883
     Eigenvalues ---    0.02883   0.02936   0.02936   0.07133   0.07172
     Eigenvalues ---    0.12854   0.16000   0.16000   0.16000   0.16000
     Eigenvalues ---    0.16000   0.16001   0.16126   0.21893   0.24644
     Eigenvalues ---    0.25182   0.31994   0.33992   0.34106   0.34643
     Eigenvalues ---    0.34875   0.35274   0.35431   0.35441   0.35523
     Eigenvalues ---    0.36720   0.57667   0.61741
 En-DIIS/RFO-DIIS/Sim-DIIS IScMMF=       -3 using points:     3    2
 RFO step:  Lambda=-9.57831300D-08.
 DidBck=F Rises=F RFO-DIIS coefs:    1.30726   -0.30726
 Iteration  1 RMS(Cart)=  0.00013413 RMS(Int)=  0.00000002
 Iteration  2 RMS(Cart)=  0.00000002 RMS(Int)=  0.00000000
 ClnCor:  largest displacement from symmetrization is 7.75D-12 for atom     9.
 Variable       Old X    -DE/DX   Delta X   Delta X   Delta X     New X
                                 (Linear)    (Quad)   (Total)
    R1        2.52925   0.00002   0.00027  -0.00021   0.00007   2.52932
    R2        2.04511  -0.00000  -0.00002  -0.00001  -0.00002   2.04509
    R3        2.04370   0.00001   0.00002   0.00002   0.00004   2.04375
    R4        2.76689   0.00001   0.00013  -0.00009   0.00004   2.76693
    R5        2.84306  -0.00001   0.00011  -0.00013  -0.00002   2.84304
    R6        2.52104   0.00005   0.00022  -0.00010   0.00012   2.52116
    R7        2.05084   0.00000  -0.00004   0.00003  -0.00000   2.05083
    R8        2.04377  -0.00000   0.00001  -0.00002  -0.00002   2.04375
    R9        2.04264   0.00002   0.00003   0.00001   0.00004   2.04269
   R10        2.05636   0.00003  -0.00003   0.00011   0.00007   2.05643
   R11        2.06373   0.00001  -0.00005   0.00006   0.00001   2.06374
   R12        2.06373   0.00001  -0.00005   0.00006   0.00001   2.06374
    A1        2.11801  -0.00003  -0.00009  -0.00015  -0.00023   2.11777
    A2        2.12534  -0.00003  -0.00013  -0.00007  -0.00021   2.12514
    A3        2.03983   0.00006   0.00022   0.00022   0.00044   2.04027
    A4        2.08902  -0.00002  -0.00013  -0.00000  -0.00013   2.08888
    A5        2.12138   0.00002   0.00018  -0.00007   0.00011   2.12149
    A6        2.07279   0.00001  -0.00005   0.00008   0.00003   2.07282
    A7        2.20177  -0.00002  -0.00008  -0.00002  -0.00009   2.20167
    A8        2.01034   0.00002   0.00010   0.00006   0.00016   2.01050
    A9        2.07108  -0.00001  -0.00002  -0.00004  -0.00007   2.07101
   A10        2.13627  -0.00001  -0.00000  -0.00007  -0.00007   2.13620
   A11        2.11324  -0.00004  -0.00021  -0.00009  -0.00030   2.11294
   A12        2.03367   0.00005   0.00022   0.00016   0.00038   2.03405
   A13        1.93804  -0.00001  -0.00013   0.00005  -0.00007   1.93797
   A14        1.93902  -0.00001   0.00001  -0.00011  -0.00011   1.93891
   A15        1.93902  -0.00001   0.00001  -0.00011  -0.00011   1.93891
   A16        1.88893   0.00001   0.00003   0.00004   0.00007   1.88901
   A17        1.88893   0.00001   0.00003   0.00004   0.00007   1.88901
[...]
    A8        2.01034   0.00002   0.00000   0.00015   0.00015   2.01049
    A9        2.07108  -0.00001   0.00000  -0.00009  -0.00009   2.07099
   A10        2.13627  -0.00001   0.00000  -0.00011  -0.00011   2.13617
   A11        2.11324  -0.00004   0.00000  -0.00034  -0.00034   2.11290
   A12        2.03367   0.00005   0.00000   0.00045   0.00045   2.03412
   A13        1.93804  -0.00001   0.00000  -0.00006  -0.00006   1.93798
   A14        1.93902  -0.00002   0.00000  -0.00010  -0.00010   1.93892
   A15        1.93902  -0.00002   0.00000  -0.00010  -0.00010   1.93892
   A16        1.88893   0.00001   0.00000   0.00006   0.00006   1.88899
   A17        1.88893   0.00001   0.00000   0.00006   0.00006   1.88899
   A18        1.86736   0.00002   0.00000   0.00016   0.00016   1.86752
    D1        0.00000   0.00000   0.00000   0.00000   0.00000   0.00000
    D2        3.14159  -0.00000   0.00000   0.00000   0.00000   3.14159
    D3        3.14159   0.00000   0.00000   0.00000   0.00000   3.14159
    D4        0.00000  -0.00000   0.00000   0.00000   0.00000   0.00000
    D5        3.14159  -0.00000   0.00000  -0.00000   0.00000   3.14159
    D6        0.00000  -0.00000   0.00000  -0.00000   0.00000   0.00000
    D7        0.00000  -0.00000   0.00000  -0.00000   0.00000   0.00000
    D8        3.14159  -0.00000   0.00000  -0.00000   0.00000   3.14159
    D9        0.00000  -0.00000   0.00000  -0.00000   0.00000   0.00000
   D10        2.10325  -0.00000   0.00000  -0.00003  -0.00003   2.10321
   D11       -2.10325   0.00000   0.00000   0.00003   0.00003  -2.10321
   D12        3.14159  -0.00000   0.00000  -0.00000   0.00000   3.14159
   D13       -1.03835  -0.00000   0.00000  -0.00003  -0.00003  -1.03838
   D14        1.03835   0.00000   0.00000   0.00003   0.00003   1.03838
   D15        0.00000   0.00000   0.00000   0.00000   0.00000   0.00000
   D16        3.14159   0.00000   0.00000   0.00000   0.00000   3.14159
   D17        3.14159  -0.00000   0.00000  -0.00000   0.00000   3.14159
   D18        0.00000  -0.00000   0.00000   0.00000   0.00000   0.00000
         Item               Value     Threshold  Converged?
 Maximum Force            0.000055     0.000450     YES
 RMS     Force            0.000018     0.000300     YES
 Maximum Displacement     0.000689     0.001800     YES
 RMS     Displacement     0.000152     0.001200     YES
 Predicted change in Energy=-5.261184D-08
 Optimization completed.
    -- Stationary point found.
                           ----------------------------
                           !   Optimized Parameters   !
                           ! (Angstroms and Degrees)  !
 --------------------------                            --------------------------
 ! Name  Definition              Value          Derivative Info.                !
 --------------------------------------------------------------------------------
 ! R1    R(1,2)                  1.3384         -DE/DX =    0.0                 !
 ! R2    R(1,6)                  1.0822         -DE/DX =    0.0                 !
 ! R3    R(1,7)                  1.0815         -DE/DX =    0.0                 !
 ! R4    R(2,3)                  1.4642         -DE/DX =    0.0                 !
 ! R5    R(2,5)                  1.5045         -DE/DX =    0.0                 !
 ! R6    R(3,4)                  1.3341         -DE/DX =    0.0                 !
 ! R7    R(3,8)                  1.0853         -DE/DX =    0.0                 !
 ! R8    R(4,9)                  1.0815         -DE/DX =    0.0                 !
 ! R9    R(4,10)                 1.0809         -DE/DX =    0.0                 !
 ! R10   R(5,11)                 1.0882         -DE/DX =    0.0                 !
 ! R11   R(5,12)                 1.0921         -DE/DX =    0.0                 !
 ! R12   R(5,13)                 1.0921         -DE/DX =    0.0                 !
 ! A1    A(2,1,6)              121.3529         -DE/DX =    0.0                 !
 ! A2    A(2,1,7)              121.7732         -DE/DX =    0.0                 !
 ! A3    A(6,1,7)              116.8739         -DE/DX =    0.0001              !
 ! A4    A(1,2,3)              119.6918         -DE/DX =    0.0                 !
 ! A5    A(1,2,5)              121.5461         -DE/DX =    0.0                 !
 ! A6    A(3,2,5)              118.7622         -DE/DX =    0.0                 !
 ! A7    A(2,3,4)              126.1519         -DE/DX =    0.0                 !
 ! A8    A(2,3,8)              115.1839         -DE/DX =    0.0                 !
 ! A9    A(4,3,8)              118.6642         -DE/DX =    0.0                 !
 ! A10   A(3,4,9)              122.3995         -DE/DX =    0.0                 !
 ! A11   A(3,4,10)             121.0798         -DE/DX =    0.0                 !
 ! A12   A(9,4,10)             116.5207         -DE/DX =    0.0                 !
 ! A13   A(2,5,11)             111.0415         -DE/DX =    0.0                 !
 ! A14   A(2,5,12)             111.0976         -DE/DX =    0.0                 !
 ! A15   A(2,5,13)             111.0976         -DE/DX =    0.0                 !
 ! A16   A(11,5,12)            108.2278         -DE/DX =    0.0                 !
 ! A17   A(11,5,13)            108.2278         -DE/DX =    0.0                 !
 ! A18   A(12,5,13)            106.9919         -DE/DX =    0.0                 !
 ! D1    D(6,1,2,3)              0.0            -DE/DX =    0.0                 !
 ! D2    D(6,1,2,5)            180.0            -DE/DX =    0.0                 !
 ! D3    D(7,1,2,3)            180.0            -DE/DX =    0.0                 !
 ! D4    D(7,1,2,5)              0.0            -DE/DX =    0.0                 !
 ! D5    D(1,2,3,4)            180.0            -DE/DX =    0.0                 !
 ! D6    D(1,2,3,8)              0.0            -DE/DX =    0.0                 !
 ! D7    D(5,2,3,4)              0.0            -DE/DX =    0.0                 !
 ! D8    D(5,2,3,8)            180.0            -DE/DX =    0.0                 !
 ! D9    D(1,2,5,11)             0.0            -DE/DX =    0.0                 !
 ! D10   D(1,2,5,12)           120.5071         -DE/DX =    0.0                 !
 ! D11   D(1,2,5,13)          -120.5071         -DE/DX =    0.0                 !
 ! D12   D(3,2,5,11)           180.0            -DE/DX =    0.0                 !
 ! D13   D(3,2,5,12)           -59.4929         -DE/DX =    0.0                 !
 ! D14   D(3,2,5,13)            59.4929         -DE/DX =    0.0                 !
 ! D15   D(2,3,4,9)              0.0            -DE/DX =    0.0                 !
 ! D16   D(2,3,4,10)           180.0            -DE/DX =    0.0                 !
 ! D17   D(8,3,4,9)            180.0            -DE/DX =    0.0                 !
 ! D18   D(8,3,4,10)             0.0            -DE/DX =    0.0                 !
 --------------------------------------------------------------------------------
 GradGradGradGradGradGradGradGradGradGradGradGradGradGradGradGradGradGrad


 ----------------------------------------------------------------------

 Electric dipole moment (input orientation):
 (Debye = 10**-18 statcoulomb cm , SI units = C m)
                  (au)            (Debye)         (10**-30 SI)
   Tot        0.112670D+00      0.286379D+00      0.955257D+00
   x          0.112616D+00      0.286241D+00      0.954796D+00
   y          0.349968D-02      0.889529D-02      0.296715D-01
   z          0.000000D+00      0.000000D+00      0.000000D+00

 Dipole polarizability, Alpha (input orientation).
 (esu units = cm**3 , SI units = C**2 m**2 J**-1)
 Alpha(0;0):
               (au)            (10**-24 esu)      (10**-40 SI)
   iso        0.651660D+02      0.965661D+01      0.107444D+02
   aniso      0.476134D+02      0.705558D+01      0.785039D+01
   xx         0.601453D+02      0.891261D+01      0.991661D+01
   yx        -0.626783D+01     -0.928797D+00     -0.103343D+01
   yy         0.940864D+02      0.139422D+02      0.155128D+02
   zx         0.000000D+00      0.000000D+00      0.000000D+00
   zy         0.000000D+00      0.000000D+00      0.000000D+00
   zz         0.412665D+02      0.611506D+01      0.680392D+01

 ----------------------------------------------------------------------

 Dipole orientation:
     6         -0.10238454          3.29462153         -1.00018512
     6         -0.03071406          0.98834470          0.03570030
     6          0.03869975         -1.24531537         -1.59574488
     6          0.11329230         -3.64562114         -0.82854377
     6         -0.01938806          0.62388653          2.85528077
     1         -0.11031931          3.54995368         -3.02928231
     1         -0.15498122          4.98712459          0.14410285
     1          0.02660278         -0.85604820         -3.60926344
     1          0.12938240         -4.16338290          1.14848824
     1          0.16102871         -5.18172631         -2.17409217
     1         -0.07556858          2.43171349          3.83365741
     1         -1.64437804         -0.49174662          3.46664394
     1          1.67173885         -0.38869408          3.46664394

 Electric dipole moment (dipole orientation):
 (Debye = 10**-18 statcoulomb cm , SI units = C m)
                  (au)            (Debye)         (10**-30 SI)
   Tot        0.112670D+00      0.286379D+00      0.955257D+00
   x          0.000000D+00      0.000000D+00      0.000000D+00
   y          0.000000D+00      0.000000D+00      0.000000D+00
   z          0.112670D+00      0.286379D+00      0.955257D+00

 Dipole polarizability, Alpha (dipole orientation).
 (esu units = cm**3 , SI units = C**2 m**2 J**-1)
 Alpha(0;0):
               (au)            (10**-24 esu)      (10**-40 SI)
   iso        0.651660D+02      0.965661D+01      0.107444D+02
   aniso      0.476134D+02      0.705558D+01      0.785039D+01
   xx         0.413178D+02      0.612266D+01      0.681238D+01
   yx        -0.165093D+01     -0.244642D+00     -0.272201D+00
   yy         0.943915D+02      0.139874D+02      0.155631D+02
   zx         0.161581D+00      0.239438D-01      0.266410D-01
   zy        -0.519948D+01     -0.770484D+00     -0.857279D+00
   zz         0.597888D+02      0.885979D+01      0.985784D+01

 ----------------------------------------------------------------------
 1\1\GINC-GAMBA\Freq\RB3LYP\Gen\C5H8\IRIKURA\15-Jun-2022\0\\#N Geom=All
 Check Guess=TCheck SCRF=Check GenChk RB3LYP/ChkBas Freq\\2-methyl-1,3-
 butadiene, B3LYP/pcseg-2\\0,1\C,-0.583199352,1.7269986707,0.\C,0.00262
 94884,0.523596297,0.\C,-0.8235453455,-0.6852216388,0.\C,-0.3782832214,
 -1.9427983316,0.\C,1.4999607324,0.3770785477,0.\H,-1.6606321409,1.8287
 62523,0.\H,-0.0057933771,2.6414412879,0.\H,-1.8949407968,-0.512326365,
 0.\H,0.6759267676,-2.1842897442,0.\H,-1.0647121805,-2.7777868492,0.\H,
 1.9877160881,1.3498208733,0.\H,1.8408231688,-0.1759736354,0.8778303114
 \H,1.8408231688,-0.1759736354,-0.8778303114\\Version=ES64L-G16RevB.01\
 State=1-A'\HF=-195.3931691\RMSD=8.935e-09\RMSF=3.061e-05\ZeroPoint=0.1
 132041\Thermal=0.1190603\Dipole=0.1126157,0.0034997,0.\DipoleDeriv=-0.
 0013909,0.0202075,0.,0.1081001,-0.196376,0.,0.,0.,-0.3071567,0.2518083
 ,-0.0129421,0.,-0.0496277,0.1340221,0.,0.,0.,-0.1035347,0.050772,0.053
 6764,0.,-0.0195128,0.2926398,0.,0.,0.,-0.128102,0.078605,0.0466632,0.,
 0.0329656,-0.2604795,0.,0.,0.,-0.3091116,-0.0588335,-0.0055685,0.,0.02
 52176,0.0366149,0.,0.,0.,0.1478228,-0.1114057,0.0285956,0.,-0.0250645,
 0.0493549,0.,0.,0.,0.1585154,-0.0048761,-0.1011062,0.,-0.044668,-0.043
 5986,0.,0.,0.,0.1355569,-0.1180524,-0.0075602,0.,0.0343055,0.018274,0.
 ,0.,0.,0.1300624,-0.0807775,0.0397802,0.,0.0001243,0.0631964,0.,0.,0.,
 0.1437165,-0.00767,-0.0939884,0.,-0.0489405,-0.0332827,0.,0.,0.,0.1438
 539,0.0047254,-0.0335045,0.,-0.116868,-0.0911054,0.,0.,0.,0.0776557,-0
 .0014523,0.0328735,-0.0073013,0.0519842,0.01537,0.0830028,-0.0593884,0
 .0810371,-0.0446393,-0.0014523,0.0328735,0.0073013,0.0519842,0.01537,-
 0.0830028,0.0593884,-0.0810371,-0.0446393\Polar=60.1452566,-6.2678342,
 94.0864021,0.,0.,41.2664793\Quadrupole=1.5096591,1.0023268,-2.5119859,
 0.0711481,0.,0.\PG=CS [SG(C5H6),X(H2)]\NImag=0\\0.67796834,-0.06076725
 ,0.78639399,0.,0.,0.10653570,-0.18906100,0.16080077,0.,0.59252978,0.15
 128446,-0.42242224,0.,-0.10738169,0.74049701,0.,0.,-0.05510902,0.,0.,0
 .17352407,0.01430468,0.00724442,0.,-0.15683693,-0.06918332,0.,0.654651
 09,-0.01100698,-0.05578668,0.,-0.06205636,-0.16258020,0.,-0.10565628,0
 .76918185,0.,0.,0.00716250,0.,0.,-0.06994501,0.,0.,0.13622552,-0.00264
 531,-0.00597763,0.,0.01635324,-0.01093468,0.,-0.16768248,0.12592858,0.
 ,0.66059204,-0.00717480,0.00494376,0.,0.00311914,-0.04776924,0.,0.1388
 0728,-0.46869591,0.,-0.05511955,0.80697199,0.,0.,0.00213167,0.,0.,0.00
 643869,0.,0.,-0.05241747,0.,0.,0.10722004,-0.02214773,0.00861367,0.,-0
 .20121749,0.01197941,0.,-0.02310358,-0.00539455,0.,0.00016067,0.002084
 93,0.,0.47915126,0.03370084,-0.00262540,0.,0.00377798,-0.08839336,0.,-
 0.02769079,0.00468249,0.,-0.00153000,-0.00092355,0.,0.02039952,0.58166
 430,0.,0.,0.00803393,0.,0.,-0.07570584,0.,0.,0.00334836,0.,0.,-0.00140
 626,0.,0.,0.53095502,-0.33294381,0.02405696,0.,-0.01298445,-0.00073203
 ,0.,0.00058247,-0.00253343,0.,0.00050059,0.00035937,0.,0.00103316,0.00
 198407,0.,0.35394482,0.01899833,-0.05939087,0.,0.02927802,0.00072657,0
 .,0.00232281,0.00088504,0.,-0.00042193,0.00015392,0.,0.00011143,-0.003
 81392,0.,-0.02773581,0.05663179,0.,0.,-0.03329406,0.,0.,0.00363196,0.,
 0.,-0.00748392,0.,0.,0.00022099,0.,0.,0.01205783,0.,0.,0.02244643,-0.1
 4104365,-0.13102965,0.,0.00893395,0.01260832,0.,-0.00134784,0.00165239
 ,0.,0.00091668,0.00047340,0.,0.00133189,0.00141513,0.,-0.01061582,-0.0
 2344893,0.,0.14128074,-0.12545452,-0.25315692,0.,-0.01818826,-0.020503
 98,0.,0.00424454,-0.00291142,0.,-0.00134792,-0.00078060,0.,-0.00205102
 ,0.00073891,0.,0.00338884,0.00490436,0.,0.13774918,0.27087942,0.,0.,-0
 .03356326,0.,0.,0.00585119,0.,0.,0.01172065,0.,0.,-0.00042993,0.,0.,-0
 .00741565,0.,0.,0.00227215,0.,0.,0.02209032,0.00113813,0.00144451,0.,-
 0.01823538,0.00463992,0.,-0.31830303,0.04041661,0.,-0.00900070,0.00133
 522,0.,0.00064347,-0.00339666,0.,0.00088322,-0.00078388,0.,0.00045904,
 -0.00009467,0.,0.34072665,-0.00174880,0.00079160,0.,-0.02559336,0.0045
 7400,0.,0.03993499,-0.06216503,0.,0.03297388,-0.00409936,0.,-0.0014360
 9,-0.00434018,0.,0.00063071,-0.00041213,0.,0.00040242,0.00019909,0.,-0
 .04538282,0.06877408,0.,0.,-0.00131286,0.,0.,0.00278268,0.,0.,-0.04111
 783,0.,0.,0.00621504,0.,0.,0.00260251,0.,0.,0.00029860,0.,0.,-0.000092
 65,0.,0.,0.02685444,0.00001408,0.00019026,0.,-0.00057804,-0.00124241,0
 .,-0.00833923,0.00242855,0.,-0.32336721,0.05888678,0.,-0.00014314,-0.0
 0094769,0.,0.00008672,-0.00003815,0.,0.00004923,0.00009117,0.,0.001134
 05,0.00151056,0.,0.34419224,-0.00024364,0.00004620,0.,0.00071850,0.001
 46813,0.,0.03180339,-0.00113129,0.,0.05453875,-0.07032299,0.,-0.000149
 46,-0.00064481,0.,-0.00018212,0.00015075,0.,-0.00011273,-0.00002087,0.
 ,0.00140600,-0.00469573,0.,-0.06520344,0.06858998,0.,0.,0.00015160,0.,
 0.,-0.00736608,0.,0.,0.00548106,0.,0.,-0.03498498,0.,0.,0.00085485,0.,
 0.,0.00013253,0.,0.,0.00041233,0.,0.,0.01107766,0.,0.,0.02258615,0.000
 55087,0.00007465,0.,-0.00081012,0.00231633,0.,0.01012544,0.01157271,0.
 ,-0.17598456,-0.14246508,0.,-0.00026596,-0.00018297,0.,-0.00000899,-0.
 00000644,0.,-0.00002526,0.00017552,0.,0.00137537,-0.00020256,0.,-0.013
 31783,-0.02139030,0.,0.17785272,-0.00118549,-0.00090480,0.,0.00398789,
 -0.00219051,0.,-0.02174542,-0.02054108,0.,-0.13740796,-0.22011317,0.,0
 .00046890,0.00020459,0.,0.00007928,0.00001727,0.,0.00019595,-0.0004207
 4,0.,0.00016015,0.00110282,0.,0.00552843,0.00722463,0.,0.15019378,0.23
 552148,0.,0.,-0.00030820,0.,0.,0.01222961,0.,0.,0.00491971,0.,0.,-0.03
 346953,0.,0.,-0.00026319,0.,0.,0.00049365,0.,0.,-0.00146988,0.,0.,-0.0
 0755845,0.,0.,0.00259432,0.,0.,0.02259948,0.00148215,-0.00164158,0.,-0
 .01561121,-0.03115511,0.,-0.00568267,0.00244798,0.,-0.00020265,0.00098
 272,0.,-0.09720217,-0.10265276,0.,0.00057891,0.00018276,0.,0.00004964,
 0.00124246,0.,-0.00099526,-0.00144426,0.,0.00046800,-0.00005698,0.,0.0
 0020999,-0.00015000,0.,0.10859492,0.00184291,0.00089366,0.,0.00222267,
 0.00314861,0.,0.00124971,0.00030808,0.,0.00017629,-0.00014545,0.,-0.10
 670952,-0.26376433,0.,0.00001329,0.00028102,0.,0.00002474,0.00053558,0
 .,0.00004256,0.00022679,0.,-0.00029503,0.00028704,0.,-0.00019846,0.000
 05298,0.,0.11388751,0.28523472,0.,0.,-0.00045126,0.,0.,-0.00156049,0.,
 0.,0.00138015,0.,0.,0.00015878,0.,0.,-0.04679919,0.,0.,-0.00021103,0.,
 0.,0.00038667,0.,0.,0.00035108,0.,0.,-0.00047159,0.,0.,0.00011120,0.,0
 .,0.04510259,-0.00380837,-0.00150457,0.00031439,-0.01124118,0.01890039
 ,-0.02762612,0.00081604,0.00110040,0.00059229,0.00017984,-0.00064471,0
 .00002833,-0.06912019,0.03756167,-0.06403415,-0.00052841,0.00077090,0.
 00218875,0.00000570,0.00012233,-0.00095514,0.00008722,0.00017767,0.000
 48685,-0.00009944,-0.00056398,-0.00034928,0.00014917,-0.00006276,0.000
 02989,0.00415519,-0.00612834,0.01220894,0.07647124,0.00087747,0.000608
 85,0.00012489,0.00465735,-0.00327740,0.00132885,-0.00066566,-0.0006229
 2,-0.00006153,-0.00043892,0.00039030,-0.00015392,0.03604140,-0.1113923
 6,0.10635149,0.00033544,-0.00006690,-0.00074924,0.00003489,0.00026859,
 0.00075524,0.00010653,0.00002203,0.00006244,-0.00045453,-0.00047552,-0
 .00028568,0.00005641,0.00002327,0.00000602,0.00917862,-0.01352934,0.02
 347359,-0.04408557,0.11940967,0.00004103,-0.00071897,0.00001163,-0.000
 36107,-0.00109924,0.00261413,0.00003601,0.00070804,0.00036314,-0.00038
 472,0.00036244,0.00016147,-0.06324911,0.10586671,-0.21313119,0.0001239
 2,-0.00001690,-0.00028256,0.00003000,-0.00005638,0.00011903,-0.0000463
 6,-0.00015809,-0.00005011,0.00026773,-0.00044173,-0.00023392,0.0003310
 4,-0.00013087,0.00006065,0.00135137,-0.00084192,0.00100154,0.06948770,
 -0.11716262,0.23169209,-0.00380837,-0.00150457,-0.00031439,-0.01124118
 ,0.01890039,0.02762612,0.00081604,0.00110040,-0.00059229,0.00017984,-0
 .00064471,-0.00002833,-0.06912019,0.03756167,0.06403415,-0.00052841,0.
 00077090,-0.00218875,0.00000570,0.00012233,0.00095514,0.00008722,0.000
 17767,-0.00048685,-0.00009944,-0.00056398,0.00034928,0.00014917,-0.000
 06276,-0.00002989,0.00415519,-0.00612834,-0.01220894,0.00293319,-0.005
 64343,-0.00762754,0.07647124,0.00087747,0.00060885,-0.00012489,0.00465
 735,-0.00327740,-0.00132885,-0.00066566,-0.00062292,0.00006153,-0.0004
 3892,0.00039030,0.00015392,0.03604140,-0.11139236,-0.10635149,0.000335
 44,-0.00006690,0.00074924,0.00003489,0.00026859,-0.00075524,0.00010653
 ,0.00002203,-0.00006244,-0.00045453,-0.00047552,0.00028568,0.00005641,
 0.00002327,-0.00000602,0.00917862,-0.01352934,-0.02347359,-0.00564343,
 0.00864174,0.01368953,-0.04408557,0.11940967,-0.00004103,0.00071897,0.
 00001163,0.00036107,0.00109924,0.00261413,-0.00003601,-0.00070804,0.00
 036314,0.00038472,-0.00036244,0.00016147,0.06324911,-0.10586671,-0.213
 13119,-0.00012392,0.00001690,-0.00028256,-0.00003000,0.00005638,0.0001
 1903,0.00004636,0.00015809,-0.00005011,-0.00026773,0.00044173,-0.00023
 392,-0.00033104,0.00013087,0.00006065,-0.00135137,0.00084192,0.0010015
 4,0.00762754,-0.01368953,-0.02232589,-0.06948770,0.11716262,0.23169209
 \\0.00006190,-0.00005937,0.,-0.00005195,0.00001660,0.,0.00004833,-0.00
 006177,0.,-0.00006757,0.00008408,0.,-0.00000881,0.00002452,0.,0.000001
 02,0.00004201,0.,-0.00004073,0.00000809,0.,0.00000543,0.00001297,0.,-0
 .00000432,-0.00002769,0.,0.00004042,-0.00001427,0.,-0.00000462,-0.0000
 2860,0.,0.00001045,0.00000171,-0.00001365,0.00001045,0.00000171,0.0000
 1365\\\@


 ONLY A FOOL KNOWS EVERYTHING.

               -- THE CHEMIST ANALYST, SEPTEMBER 1946
 Job cpu time:       0 days  0 hours 33 minutes 53.6 seconds.
 Elapsed time:       0 days  0 hours  2 minutes 49.8 seconds.
 File lengths (MBytes):  RWF=     66 Int=      0 D2E=      0 Chk=      7 Scr=      1
 Normal termination of Gaussian 16 at Wed Jun 15 21:04:42 2022.
