 Entering Gaussian System, Link 0=g16
 AtFile(1): pcseg2.gbs
            -H     0
            S   4   1.00
                  0.754732D+02           0.427821D-02
                  0.113575D+02           0.328672D-01
                  0.260081D+01           0.159578D+00
                  0.735503D+00           0.500000D+00
            S   1   1.00
                  0.231761D+00           1.0000000
            S   1   1.00
                  0.741675D-01           1.0000000
            P   1   1.00
                  0.160000D+01           1.0000000
            P   1   1.00
                  0.450000D+00           1.0000000
            D   1   1.00
                  0.125000D+01           1.0000000
            ****
            -C     0
            S   7   1.00
                  0.731999D+04           0.695369D-03
                  0.109818D+04           0.537138D-02
                  0.250014D+03           0.274734D-01
                  0.707586D+02           0.105078D+00
                  0.228595D+02           0.291262D+00
                  0.803936D+01           0.500000D+00
                  0.289309D+01           0.362224D+00
            S   2   1.00
                  0.521640D+01          -0.957844D-01
                  0.556124D+00           0.500000D+00
            S   1   1.00
                  0.228813D+00           1.0000000
            S   1   1.00
                  0.936338D-01           1.0000000
            P   4   1.00
                  0.339855D+02           0.818395D-02
                  0.772957D+01           0.586921D-01
                  0.224954D+01           0.222514D+00
                  0.767681D+00           0.500000D+00
            P   1   1.00
                  0.263283D+00           1.0000000
            P   1   1.00
                  0.848744D-01           1.0000000
            D   1   1.00
                  0.140000D+01           1.0000000
            D   1   1.00
                  0.450000D+00           1.0000000
            F   1   1.00
                  0.950000D+00           1.0000000
            ****
            -O     0
            S   7   1.00
                  0.135887D+05           0.665492D-03
                  0.203847D+04           0.514222D-02
                  0.464041D+03           0.263472D-01
                  0.131339D+03           0.101500D+00
                  0.425340D+02           0.285877D+00
                  0.150429D+02           0.500000D+00
                  0.546616D+01           0.368211D+00
            S   2   1.00
                  0.100915D+02          -0.100084D+00
                  0.110429D+01           0.500000D+00
            S   1   1.00
                  0.448082D+00           1.0000000
            S   1   1.00
                  0.175325D+00           1.0000000
            P   4   1.00
                  0.608220D+02           0.908253D-02
                  0.140332D+02           0.645878D-01
                  0.418244D+01           0.241502D+00
                  0.142490D+01           0.500000D+00
            P   1   1.00
                  0.478741D+00           1.0000000
            P   1   1.00
                  0.146257D+00           1.0000000
            D   1   1.00
                  0.220000D+01           1.0000000
            D   1   1.00
                  0.650000D+00           1.0000000
            F   1   1.00
                  0.110000D+01           1.0000000
            ****
            -N     0
            S   7   1.00
                  0.101643D+05           0.682757D-03
                  0.152481D+04           0.527488D-02
                  0.347119D+03           0.270037D-01
                  0.982389D+02           0.103673D+00
                  0.317799D+02           0.289575D+00
                  0.112240D+02           0.500000D+00
                  0.406611D+01           0.364621D+00
            S   2   1.00
                  0.747898D+01          -0.975681D-01
                  0.805040D+00           0.500000D+00
            S   1   1.00
                  0.324626D+00           1.0000000
            S   1   1.00
                  0.128132D+00           1.0000000
            P   4   1.00
                  0.482704D+02           0.829547D-02
                  0.110815D+02           0.596223D-01
                  0.326643D+01           0.227889D+00
                  0.111680D+01           0.500000D+00
            P   1   1.00
                  0.382049D+00           1.0000000
            P   1   1.00
                  0.121222D+00           1.0000000
            D   1   1.00
                  0.180000D+01           1.0000000
            D   1   1.00
                  0.550000D+00           1.0000000
            F   1   1.00
                  0.102000D+01           1.0000000
            ****
            -F     0
            S   7   1.00
                  0.174507D+05           0.655972D-03
                  0.261768D+04           0.506944D-02
                  0.595857D+03           0.259899D-01
                  0.168651D+03           0.100353D+00
                  0.546654D+02           0.284095D+00
                  0.193717D+02           0.500000D+00
                  0.706202D+01           0.370721D+00
            S   2   1.00
                  0.131197D+02          -0.101997D+00
                  0.145046D+01           0.500000D+00
            S   1   1.00
                  0.588255D+00           1.0000000
            S   1   1.00
                  0.227960D+00           1.0000000
            P   4   1.00
                  0.779407D+02           0.931135D-02
                  0.180425D+02           0.663964D-01
                  0.542342D+01           0.246386D+00
                  0.184876D+01           0.500000D+00
            P   1   1.00
                  0.617455D+00           1.0000000
            P   1   1.00
                  0.185496D+00           1.0000000
            D   1   1.00
                  0.280000D+01           1.0000000
            D   1   1.00
                  0.800000D+00           1.0000000
            F   1   1.00
                  0.120000D+01           1.0000000
            ****
            -Cl     0
            S   8   1.00
                  0.154272D+06           0.222473D-03
                  0.231232D+05           0.172590D-02
                  0.526257D+04           0.899286D-02
                  0.148995D+04           0.367724D-01
                  0.485417D+03           0.121446D+00
                  0.174634D+03           0.304148D+00
                  0.672393D+02           0.500000D+00
                  0.265780D+02           0.360252D+00
            S   3   1.00
                  0.131826D+03          -0.531330D-01
                  0.400703D+02          -0.233346D+00
                  0.789448D+01           0.500000D+00
            S   2   1.00
                  0.427711D+01           0.500000D+00
                  0.196233D+01           0.370517D+00
            S   1   1.00
                  0.520793D+00           1.0000000
            S   1   1.00
                  0.181633D+00           1.0000000
            P   7   1.00
                  0.124440D+04           0.988206D-03
                  0.295109D+03           0.829674D-02
                  0.947224D+02           0.430906D-01
                  0.352588D+02           0.148443D+00
                  0.144211D+02           0.344744D+00
                  0.610371D+01           0.500000D+00
                  0.258886D+01           0.348278D+00
            P   2   1.00
                  0.109447D+02          -0.196768D-01
                  0.104413D+01           0.500000D+00
            P   1   1.00
                  0.376184D+00           1.0000000
            P   1   1.00
                  0.120613D+00           1.0000000
            D   1   1.00
                  0.231000D+01           1.0000000
            D   1   1.00
                  0.520000D+00           1.0000000
            F   1   1.00
                  0.720000D+00           1.0000000
            ****
            -S     0
            S   8   1.00
                  0.134700D+06           0.226231D-03
                  0.201904D+05           0.175488D-02
                  0.459528D+04           0.914190D-02
                  0.130109D+04           0.373551D-01
                  0.423902D+03           0.123121D+00
                  0.152485D+03           0.306801D+00
                  0.586925D+02           0.500000D+00
                  0.231461D+02           0.354358D+00
            S   3   1.00
                  0.116327D+03          -0.491772D-01
                  0.352841D+02          -0.215962D+00
                  0.677831D+01           0.500000D+00
            S   2   1.00
                  0.360404D+01           0.500000D+00
                  0.164871D+01           0.366278D+00
            S   1   1.00
                  0.421821D+00           1.0000000
            S   1   1.00
                  0.147554D+00           1.0000000
            P   7   1.00
                  0.104863D+04           0.105273D-02
                  0.248717D+03           0.879338D-02
                  0.797887D+02           0.453358D-01
                  0.296023D+02           0.154476D+00
                  0.120627D+02           0.352366D+00
                  0.507628D+01           0.500000D+00
                  0.213375D+01           0.346429D+00
            P   2   1.00
                  0.928958D+01          -0.185932D-01
                  0.837819D+00           0.500000D+00
            P   1   1.00
                  0.301495D+00           1.0000000
            P   1   1.00
                  0.974740D-01           1.0000000
            D   1   1.00
                  0.210000D+01           1.0000000
            D   1   1.00
                  0.480000D+00           1.0000000
            F   1   1.00
                  0.660000D+00           1.0000000
            ****
            -Br     0
            S    10   1.00
                  0.233625D+07           0.532336D-04
                  0.349961D+06           0.413715D-03
                  0.796444D+05           0.217123D-02
                  0.225555D+05           0.910109D-02
                  0.735546D+04           0.323789D-01
                  0.265352D+04           0.988755D-01
                  0.103517D+04           0.248138D+00
                  0.422205D+03           0.474328D+00
                  0.180035D+03           0.500000D+00
                  0.793308D+02           0.187769D+00
            S    4   1.00
                  0.620834D+03          -0.226511D-01
                  0.190829D+03          -0.109497D+00
                  0.312505D+02           0.500000D+00
                  0.135270D+02           0.492812D+00
            S    2   1.00
                  0.216097D+02          -0.165418D+00
                  0.372566D+01           0.500000D+00
            S    1   1.00
                  0.169770D+01           1.0000000
            S    1   1.00
                  0.489332D+00           1.0000000
            S    1   1.00
                  0.175712D+00           1.0000000
            P    8   1.00
                  0.960829D+04           0.478974D-03
                  0.227618D+04           0.417853D-02
                  0.736723D+03           0.229315D-01
                  0.281579D+03           0.892653D-01
                  0.118395D+03           0.255288D+00
                  0.527481D+02           0.479074D+00
                  0.245098D+02           0.500000D+00
                  0.112009D+02           0.200944D+00
            P    4   1.00
                  0.587849D+02          -0.189674D-01
                  0.918962D+01           0.264104D+00
                  0.413895D+01           0.500000D+00
                  0.184225D+01           0.319316D+00
            P    1   1.00
                  0.713862D+00           1.0000000
            P    1   1.00
                  0.274232D+00           1.0000000
            P    1   1.00
                  0.944411D-01           1.0000000
            D    7   1.00
                  0.398470D+03           0.204066D-02
                  0.118967D+03           0.175171D-01
                  0.450197D+02           0.829708D-01
                  0.190320D+02           0.236284D+00
                  0.855686D+01           0.428468D+00
                  0.382950D+01           0.500000D+00
                  0.166291D+01           0.349360D+00
            D    1   1.00
                  0.672953D+00           1.0000000
            D    1   1.00
                  0.252000D+00           1.0000000
            F    1   1.00
                  0.530000D+00           1.0000000
            ****
            -Si     0
            S    8   1.00
                  0.996133D+05           0.235546D-03
                  0.149311D+05           0.182707D-02
                  0.339820D+04           0.951425D-02
                  0.962140D+03           0.388172D-01
                  0.313430D+03           0.127328D+00
                  0.112683D+03           0.313522D+00
                  0.433372D+02           0.500000D+00
                  0.170029D+02           0.340347D+00
            S    3   1.00
                  0.884208D+02          -0.404451D-01
                  0.266756D+02          -0.178059D+00
                  0.479640D+01           0.500000D+00
            S    2   1.00
                  0.239385D+01           0.500000D+00
                  0.108333D+01           0.338016D+00
            S    1   1.00
                  0.252420D+00           1.0000000
            S    1   1.00
                  0.891210D-01           1.0000000
            P    7   1.00
                  0.709901D+03           0.123028D-02
                  0.168426D+03           0.101366D-01
                  0.539946D+02           0.511840D-01
                  0.198646D+02           0.169967D+00
                  0.801369D+01           0.370717D+00
                  0.331870D+01           0.500000D+00
                  0.136112D+01           0.344128D+00
            P    2   1.00
                  0.622158D+01          -0.166609D-01
                  0.503049D+00           0.500000D+00
            P    1   1.00
                  0.179848D+00           1.0000000
            P    1   1.00
                  0.591912D-01           1.0000000
            D    1   1.00
                  0.168000D+01           1.0000000
            D    1   1.00
                  0.380000D+00           1.0000000
            F    1   1.00
                  0.540000D+00           1.0000000
            ****
            -P     0
            S    8   1.00
                  0.116416D+06           0.230715D-03
                  0.174500D+05           0.178960D-02
                  0.397149D+04           0.932116D-02
                  0.112447D+04           0.380591D-01
                  0.366347D+03           0.125148D+00
                  0.131757D+03           0.310022D+00
                  0.506988D+02           0.500000D+00
                  0.199436D+02           0.347528D+00
            S    3   1.00
                  0.101878D+03          -0.446755D-01
                  0.308249D+02          -0.196376D+00
                  0.573688D+01           0.500000D+00
            S    2   1.00
                  0.296868D+01           0.500000D+00
                  0.135315D+01           0.355098D+00
            S    1   1.00
                  0.332196D+00           1.0000000
            S    1   1.00
                  0.116229D+00           1.0000000
            P    7   1.00
                  0.873928D+03           0.112375D-02
                  0.207298D+03           0.933330D-02
                  0.664628D+02           0.477213D-01
                  0.245665D+02           0.160733D+00
                  0.996820D+01           0.359760D+00
                  0.416536D+01           0.500000D+00
                  0.173022D+01           0.346593D+00
            P    2   1.00
                  0.772530D+01          -0.175718D-01
                  0.657252D+00           0.500000D+00
            P    1   1.00
                  0.239903D+00           1.0000000
            P    1   1.00
                  0.800988D-01           1.0000000
            D    1   1.00
                  0.189000D+01           1.0000000
            D    1   1.00
                  0.430000D+00           1.0000000
            F    1   1.00
                  0.600000D+00           1.0000000
            ****
            
 Initial command:
 /usr/local/apps/g16_b01_avx/g16/l1.exe "/wrk/irikura/Gau-10430.inp" -scrdir="/wrk/irikura/"
 Entering Link 1 = /usr/local/apps/g16_b01_avx/g16/l1.exe PID=     10432.
  
 Copyright (c) 1988-2017, Gaussian, Inc.  All Rights Reserved.
  
 This is part of the Gaussian(R) 16 program.  It is based on
 the Gaussian(R) 09 system (copyright 2009, Gaussian, Inc.),
 the Gaussian(R) 03 system (copyright 2003, Gaussian, Inc.),
 the Gaussian(R) 98 system (copyright 1998, Gaussian, Inc.),
 the Gaussian(R) 94 system (copyright 1995, Gaussian, Inc.),
 the Gaussian 92(TM) system (copyright 1992, Gaussian, Inc.),
 the Gaussian 90(TM) system (copyright 1990, Gaussian, Inc.),
 the Gaussian 88(TM) system (copyright 1988, Gaussian, Inc.),
 the Gaussian 86(TM) system (copyright 1986, Carnegie Mellon
 University), and the Gaussian 82(TM) system (copyright 1983,
 Carnegie Mellon University). Gaussian is a federally registered
 trademark of Gaussian, Inc.
  
 This software contains proprietary and confidential information,
 including trade secrets, belonging to Gaussian, Inc.
  
 This software is provided under written license and may be
 used, copied, transmitted, or stored only in accord with that
 written license.
  
 The following legend is applicable only to US Government
 contracts under FAR:
  
                    RESTRICTED RIGHTS LEGEND
  
 Use, reproduction and disclosure by the US Government is
 subject to restrictions as set forth in subparagraphs (a)
 and (c) of the Commercial Computer Software - Restricted
 Rights clause in FAR 52.227-19.
  
 Gaussian, Inc.
 340 Quinnipiac St., Bldg. 40, Wallingford CT 06492
  
  
 ---------------------------------------------------------------
 Warning -- This program may not be used in any manner that
 competes with the business of Gaussian, Inc. or will provide
 assistance to any competitor of Gaussian, Inc.  The licensee
 of this program is prohibited from giving any competitor of
 Gaussian, Inc. access to this program.  By using this program,
 the user acknowledges that Gaussian, Inc. is engaged in the
 business of creating and licensing software in the field of
 computational chemistry and represents and warrants to the
 licensee that it is not a competitor of Gaussian, Inc. and that
 it will not use this program in any manner prohibited above.
 ---------------------------------------------------------------
  

 Cite this work as:
 Gaussian 16, Revision B.01,
 M. J. Frisch, G. W. Trucks, H. B. Schlegel, G. E. Scuseria, 
 M. A. Robb, J. R. Cheeseman, G. Scalmani, V. Barone, 
 G. A. Petersson, H. Nakatsuji, X. Li, M. Caricato, A. V. Marenich, 
 J. Bloino, B. G. Janesko, R. Gomperts, B. Mennucci, H. P. Hratchian, 
 J. V. Ortiz, A. F. Izmaylov, J. L. Sonnenberg, D. Williams-Young, 
 F. Ding, F. Lipparini, F. Egidi, J. Goings, B. Peng, A. Petrone, 
 T. Henderson, D. Ranasinghe, V. G. Zakrzewski, J. Gao, N. Rega, 
 G. Zheng, W. Liang, M. Hada, M. Ehara, K. Toyota, R. Fukuda, 
 J. Hasegawa, M. Ishida, T. Nakajima, Y. Honda, O. Kitao, H. Nakai, 
 T. Vreven, K. Throssell, J. A. Montgomery, Jr., J. E. Peralta, 
 F. Ogliaro, M. J. Bearpark, J. J. Heyd, E. N. Brothers, K. N. Kudin, 
 V. N. Staroverov, T. A. Keith, R. Kobayashi, J. Normand, 
 K. Raghavachari, A. P. Rendell, J. C. Burant, S. S. Iyengar, 
 J. Tomasi, M. Cossi, J. M. Millam, M. Klene, C. Adamo, R. Cammi, 
 J. W. Ochterski, R. L. Martin, K. Morokuma, O. Farkas, 
 J. B. Foresman, and D. J. Fox, Gaussian, Inc., Wallingford CT, 2016.
 
 ******************************************
 Gaussian 16:  ES64L-G16RevB.01 20-Dec-2017
                16-Jun-2022 
 ******************************************
 %mem=1000mw
 %nprocs=12
 Will use up to   12 processors via shared memory.
 --------------------
 # b3lyp/gen opt freq
 --------------------
 1/18=20,19=15,26=3,38=1/1,3;
 2/9=110,12=2,17=6,18=5,40=1/2;
 3/5=7,11=2,25=1,30=1,71=1,74=-5/1,2,3;
 4//1;
 5/5=2,38=5/2;
 6/7=2,8=2,9=2,10=2,28=1/1;
 7//1,2,3,16;
 1/18=20,19=15,26=3/3(2);
 2/9=110/2;
 99//99;
 2/9=110/2;
 3/5=7,6=1,11=2,25=1,30=1,71=1,74=-5,82=7/1,2,3;
 4/5=5,16=3,69=1/1;
 5/5=2,38=5/2;
 7//1,2,3,16;
 1/18=20,19=15,26=3/3(-5);
 2/9=110/2;
 6/7=2,8=2,9=2,10=2,19=2,28=1/1;
 99/9=1/99;
 -----------------------------
 dimethylaminyl, B3LYP/pcseg-2
 -----------------------------
 Symbolic Z-matrix:
 Charge =  0 Multiplicity = 2
 N                     0.        0.58273   0. 
 C                     1.19093  -0.22506   0. 
 C                    -1.19093  -0.22506   0. 
 H                     2.08333   0.40657   0. 
 H                     1.22923  -0.88762   0.88208 
 H                     1.22923  -0.88762  -0.88208 
 H                    -2.08333   0.40657   0. 
 H                    -1.22923  -0.88762   0.88208 
 H                    -1.22923  -0.88762  -0.88208 
 

 GradGradGradGradGradGradGradGradGradGradGradGradGradGradGradGradGradGrad
 Berny optimization.
 Initialization pass.
                           ----------------------------
                           !    Initial Parameters    !
                           ! (Angstroms and Degrees)  !
 --------------------------                            --------------------------
 ! Name  Definition              Value          Derivative Info.                !
 --------------------------------------------------------------------------------
 ! R1    R(1,2)                  1.439          estimate D2E/DX2                !
 ! R2    R(1,3)                  1.439          estimate D2E/DX2                !
 ! R3    R(2,4)                  1.0933         estimate D2E/DX2                !
 ! R4    R(2,5)                  1.1039         estimate D2E/DX2                !
 ! R5    R(2,6)                  1.1039         estimate D2E/DX2                !
 ! R6    R(3,7)                  1.0933         estimate D2E/DX2                !
 ! R7    R(3,8)                  1.1039         estimate D2E/DX2                !
 ! R8    R(3,9)                  1.1039         estimate D2E/DX2                !
 ! A1    A(2,1,3)              111.703          estimate D2E/DX2                !
 ! A2    A(1,2,4)              110.5613         estimate D2E/DX2                !
 ! A3    A(1,2,5)              111.4472         estimate D2E/DX2                !
 ! A4    A(1,2,6)              111.4472         estimate D2E/DX2                !
 ! A5    A(4,2,5)              108.5683         estimate D2E/DX2                !
 ! A6    A(4,2,6)              108.5683         estimate D2E/DX2                !
 ! A7    A(5,2,6)              106.0849         estimate D2E/DX2                !
 ! A8    A(1,3,7)              110.5613         estimate D2E/DX2                !
 ! A9    A(1,3,8)              111.4472         estimate D2E/DX2                !
 ! A10   A(1,3,9)              111.4472         estimate D2E/DX2                !
 ! A11   A(7,3,8)              108.5683         estimate D2E/DX2                !
 ! A12   A(7,3,9)              108.5683         estimate D2E/DX2                !
 ! A13   A(8,3,9)              106.0849         estimate D2E/DX2                !
 ! D1    D(3,1,2,4)            180.0            estimate D2E/DX2                !
 ! D2    D(3,1,2,5)            -59.152          estimate D2E/DX2                !
 ! D3    D(3,1,2,6)             59.152          estimate D2E/DX2                !
 ! D4    D(2,1,3,7)            180.0            estimate D2E/DX2                !
 ! D5    D(2,1,3,8)             59.152          estimate D2E/DX2                !
 ! D6    D(2,1,3,9)            -59.152          estimate D2E/DX2                !
 --------------------------------------------------------------------------------
 Trust Radius=3.00D-01 FncErr=1.00D-07 GrdErr=1.00D-06 EigMax=2.50D+02 EigMin=1.00D-04
 Number of steps in this run=     37 maximum allowed number of steps=    100.
 GradGradGradGradGradGradGradGradGradGradGradGradGradGradGradGradGradGrad

                          Input orientation:                          
 ---------------------------------------------------------------------
 Center     Atomic      Atomic             Coordinates (Angstroms)
 Number     Number       Type             X           Y           Z
 ---------------------------------------------------------------------
      1          7           0        0.000000    0.582733    0.000000
      2          6           0        1.190926   -0.225055    0.000000
      3          6           0       -1.190926   -0.225055    0.000000
      4          1           0        2.083332    0.406574    0.000000
      5          1           0        1.229229   -0.887617    0.882077
      6          1           0        1.229229   -0.887617   -0.882077
      7          1           0       -2.083332    0.406574    0.000000
      8          1           0       -1.229229   -0.887617    0.882077
      9          1           0       -1.229229   -0.887617   -0.882077
 ---------------------------------------------------------------------
                    Distance matrix (angstroms):
                    1          2          3          4          5
     1  N    0.000000
     2  C    1.439037   0.000000
     3  C    1.439037   2.381852   0.000000
     4  H    2.090766   1.093318   3.334625   0.000000
     5  H    2.109738   1.103864   2.659737   1.783951   0.000000
     6  H    2.109738   1.103864   2.659737   1.783951   1.764154
     7  H    2.090766   3.334625   1.093318   4.166664   3.664158
     8  H    2.109738   2.659737   1.103864   3.664158   2.458458
     9  H    2.109738   2.659737   1.103864   3.664158   3.025930
                    6          7          8          9
     6  H    0.000000
     7  H    3.664158   0.000000
     8  H    3.025930   1.783951   0.000000
     9  H    2.458458   1.783951   1.764154   0.000000
 Stoichiometry    C2H6N(2)
 Framework group  C2V[C2(N),SGV(C2H2),X(H4)]
 Deg. of freedom     7
 Full point group                 C2V     NOp   4
 Largest Abelian subgroup         C2V     NOp   4
 Largest concise Abelian subgroup C2V     NOp   4
                         Standard orientation:                         
 ---------------------------------------------------------------------
 Center     Atomic      Atomic             Coordinates (Angstroms)
 Number     Number       Type             X           Y           Z
 ---------------------------------------------------------------------
      1          7           0        0.000000    0.000000    0.637087
      2          6           0        0.000000    1.190926   -0.170701
      3          6           0       -0.000000   -1.190926   -0.170701
      4          1           0        0.000000    2.083332    0.460928
      5          1           0        0.882077    1.229229   -0.833263
      6          1           0       -0.882077    1.229229   -0.833263
      7          1           0       -0.000000   -2.083332    0.460928
      8          1           0        0.882077   -1.229229   -0.833263
      9          1           0       -0.882077   -1.229229   -0.833263
 ---------------------------------------------------------------------
 Rotational constants (GHZ):          40.0565864           9.7158961           8.6598108
 General basis read from cards:  (5D, 7F)
 There are    66 symmetry adapted cartesian basis functions of A1  symmetry.
 There are    33 symmetry adapted cartesian basis functions of A2  symmetry.
 There are    38 symmetry adapted cartesian basis functions of B1  symmetry.
 There are    58 symmetry adapted cartesian basis functions of B2  symmetry.
 There are    57 symmetry adapted basis functions of A1  symmetry.
 There are    31 symmetry adapted basis functions of A2  symmetry.
 There are    35 symmetry adapted basis functions of B1  symmetry.
 There are    51 symmetry adapted basis functions of B2  symmetry.
   174 basis functions,   261 primitive gaussians,   195 cartesian basis functions
    13 alpha electrons       12 beta electrons
       nuclear repulsion energy        76.7181240222 Hartrees.
 NAtoms=    9 NActive=    9 NUniq=    4 SFac= 4.00D+00 NAtFMM=   60 NAOKFM=F Big=F
 Integral buffers will be    131072 words long.
 Raffenetti 2 integral format.
 Two-electron integral symmetry is turned on.
 One-electron integrals computed using PRISM.
 NBasis=   174 RedAO= T EigKep=  1.05D-03  NBF=    57    31    35    51
 NBsUse=   174 1.00D-06 EigRej= -1.00D+00 NBFU=    57    31    35    51
 ExpMin= 7.42D-02 ExpMax= 1.02D+04 ExpMxC= 3.47D+02 IAcc=3 IRadAn=         5 AccDes= 0.00D+00
 Harris functional with IExCor=  402 and IRadAn=       5 diagonalized for initial guess.
 HarFok:  IExCor=  402 AccDes= 0.00D+00 IRadAn=         5 IDoV= 1 UseB2=F ITyADJ=14
 ICtDFT=  3500011 ScaDFX=  1.000000  1.000000  1.000000  1.000000
 FoFCou: FMM=F IPFlag=           0 FMFlag=      100000 FMFlg1=           0
         NFxFlg=           0 DoJE=T BraDBF=F KetDBF=T FulRan=T
         wScrn=  0.000000 ICntrl=       500 IOpCl=  0 I1Cent=   200000004 NGrid=           0
         NMat0=    1 NMatS0=      1 NMatT0=    0 NMatD0=    1 NMtDS0=    0 NMtDT0=    0
 Petite list used in FoFCou.
 Initial guess orbital symmetries:
 Alpha Orbitals:
       Occupied  (A1) (B2) (A1) (A1) (B2) (A1) (A1) (B2) (B1) (A2)
                 (B2) (A1) (B1)
       Virtual   (A1) (B2) (A1) (B1) (A1) (B2) (A2) (B2) (A1) (B1)
                 (A2) (B2) (A1) (A1) (B2) (B1) (A1) (B2) (A1) (A2)
                 (B2) (B1) (A1) (B2) (B2) (A1) (B1) (A1) (A2) (B2)
                 (A1) (B1) (A2) (A1) (B2) (B1) (A2) (B2) (A1) (B1)
                 (B2) (A2) (A1) (A2) (A1) (B1) (B2) (B1) (A1) (B2)
                 (A1) (B2) (A2) (B2) (B1) (A1) (A1) (B1) (B2) (A2)
                 (A1) (B2) (A1) (B2) (A2) (B1) (A1) (B2) (A1) (A1)
                 (B2) (B1) (A2) (B2) (A1) (B2) (B2) (A2) (A1) (B1)
                 (B1) (A1) (A2) (B1) (A2) (B2) (A1) (B2) (B1) (A1)
                 (A1) (A2) (B2) (B1) (B1) (A2) (B2) (A1) (A2) (B1)
                 (B2) (A1) (A2) (A1) (B1) (B2) (A1) (B2) (B1) (A2)
                 (A1) (B2) (A1) (B1) (A2) (B2) (B1) (B2) (A2) (A1)
                 (A2) (B2) (A1) (A1) (B1) (B2) (B1) (A1) (A2) (A1)
                 (B2) (B2) (B1) (A1) (A2) (B2) (B1) (A1) (B2) (A1)
                 (A2) (A1) (B2) (B1) (B2) (B1) (A2) (A2) (A1) (B2)
                 (B1) (A2) (A1) (B2) (A1) (B1) (B2) (A1) (A2) (B2)
                 (A1)
 Beta  Orbitals:
       Occupied  (A1) (B2) (A1) (A1) (B2) (A1) (A1) (B2) (B1) (A2)
                 (B2) (A1)
       Virtual   (B1) (A1) (B2) (A1) (B1) (A1) (B2) (A2) (B2) (A1)
                 (B1) (A2) (B2) (A1) (A1) (B2) (B1) (A1) (B2) (A1)
                 (A2) (B2) (B1) (A1) (B2) (B2) (A1) (B1) (A1) (A2)
                 (B2) (A1) (B1) (A2) (A1) (B2) (B1) (A2) (B2) (A1)
                 (B1) (B2) (A2) (A1) (A2) (A1) (B1) (B2) (B1) (A1)
                 (B2) (A1) (B2) (A2) (B2) (B1) (A1) (A1) (B1) (B2)
                 (A2) (A1) (B2) (A1) (B2) (A2) (B1) (A1) (B2) (A1)
                 (A1) (B2) (B1) (A2) (B2) (A1) (B2) (B2) (A2) (A1)
                 (B1) (B1) (A1) (A2) (B1) (A2) (B2) (A1) (B2) (B1)
                 (A1) (A1) (A2) (B2) (B1) (B1) (A2) (B2) (A1) (A2)
                 (B1) (B2) (A1) (A2) (A1) (B1) (B2) (A1) (B2) (B1)
                 (A2) (A1) (B2) (A1) (B1) (A2) (B2) (B1) (B2) (A2)
                 (A1) (A2) (B2) (A1) (A1) (B1) (B2) (B1) (A1) (A2)
                 (A1) (B2) (B2) (B1) (A1) (A2) (B2) (B1) (A1) (B2)
                 (A1) (A2) (A1) (B2) (B1) (B2) (B1) (A2) (A2) (A1)
                 (B2) (B1) (A2) (A1) (B2) (A1) (B1) (B2) (A1) (A2)
                 (B2) (A1)
 The electronic state of the initial guess is 2-B1.
 Initial guess <Sx>= 0.0000 <Sy>= 0.0000 <Sz>= 0.5000 <S**2>= 0.7500 S= 0.5000
 Keep R1 and R2 ints in memory in symmetry-blocked form, NReq=145047579.
 Requested convergence on RMS density matrix=1.00D-08 within 128 cycles.
 Requested convergence on MAX density matrix=1.00D-06.
 Requested convergence on             energy=1.00D-06.
 No special actions if energy rises.
 Integral accuracy reduced to 1.0D-05 until final iterations.
 Initial convergence to 1.0D-05 achieved.  Increase integral accuracy.
 SCF Done:  E(UB3LYP) =  -134.566983290     A.U. after   13 cycles
            NFock= 13  Conv=0.55D-08     -V/T= 2.0045
 <Sx>= 0.0000 <Sy>= 0.0000 <Sz>= 0.5000 <S**2>= 0.7542 S= 0.5021
 <L.S>=  0.00000000000    
 Annihilation of the first spin contaminant:
 S**2 before annihilation     0.7542,   after     0.7500

 **********************************************************************

            Population analysis using the SCF Density.

 **********************************************************************

 Orbital symmetries:
 Alpha Orbitals:
       Occupied  (A1) (B2) (A1) (A1) (B2) (A1) (B1) (A1) (B2) (A2)
                 (B2) (A1) (B1)
       Virtual   (A1) (B2) (B1) (A1) (A1) (B2) (A2) (B2) (A1) (B1)
                 (A2) (B2) (B2) (A1) (A1) (B1) (A1) (A2) (B2) (A1)
                 (B2) (B1) (A1) (B2) (B2) (A1) (B1) (A1) (A2) (B2)
                 (B1) (A1) (A2) (B1) (B2) (A1) (A2) (B2) (A2) (B1)
                 (A1) (B2) (A1) (A2) (A1) (B1) (B2) (A1) (B1) (B2)
                 (A1) (B2) (A2) (B2) (B1) (A1) (A1) (B1) (B2) (A2)
                 (A1) (B2) (A1) (B2) (A2) (B1) (A1) (B2) (A1) (A1)
                 (B2) (B1) (A2) (B2) (A1) (B2) (B2) (A2) (A1) (B1)
                 (B1) (A2) (A1) (B1) (A2) (B2) (A1) (B2) (A1) (B1)
                 (A1) (A2) (B1) (B2) (B1) (A2) (B2) (A2) (A1) (B1)
                 (B2) (A1) (A2) (B1) (A1) (B2) (A1) (B2) (A2) (B1)
                 (A1) (B2) (B1) (A1) (A2) (B2) (B1) (B2) (A2) (A1)
                 (A2) (B2) (A1) (B1) (A1) (B2) (B1) (A2) (A1) (A1)
                 (B2) (B2) (B1) (A1) (A2) (B2) (B1) (A1) (B2) (A1)
                 (A2) (A1) (B2) (B1) (B1) (B2) (A2) (A2) (A1) (B2)
                 (B1) (A2) (A1) (A1) (B2) (B1) (A1) (A2) (B2) (B2)
                 (A1)
 Beta  Orbitals:
       Occupied  (A1) (B2) (A1) (A1) (B2) (A1) (A1) (B1) (B2) (A2)
                 (B2) (A1)
       Virtual   (B1) (A1) (B2) (B1) (A1) (A1) (B2) (A2) (B2) (A1)
                 (B1) (A2) (B2) (B2) (A1) (A1) (B1) (A1) (B2) (A2)
                 (B2) (A1) (B1) (A1) (B2) (B2) (A1) (B1) (A2) (A1)
                 (B2) (B1) (A1) (A2) (B1) (B2) (A1) (A2) (B2) (A1)
                 (B1) (A2) (B2) (A1) (A2) (A1) (B2) (B1) (B1) (A1)
                 (B2) (A1) (B2) (A2) (B2) (B1) (A1) (A1) (B1) (B2)
                 (A2) (A1) (B2) (B2) (A1) (A2) (B1) (A1) (B2) (A1)
                 (A1) (B2) (A2) (B1) (B2) (A1) (B2) (B2) (A2) (A1)
                 (B1) (B1) (A2) (A1) (B1) (A2) (B2) (A1) (B2) (B1)
                 (A1) (A1) (A2) (B2) (B1) (B1) (A2) (B2) (A1) (A2)
                 (B1) (B2) (A1) (A2) (B1) (A1) (B2) (A1) (B2) (A2)
                 (A1) (B1) (B2) (B1) (A1) (A2) (B2) (B1) (B2) (A2)
                 (A1) (A2) (B2) (A1) (A1) (B1) (B2) (B1) (A2) (A1)
                 (A1) (B2) (B2) (B1) (A1) (A2) (B2) (B1) (A1) (B2)
                 (A1) (A2) (A1) (B2) (B1) (B1) (B2) (A2) (A2) (A1)
                 (B2) (B1) (A2) (A1) (B2) (A1) (B1) (A1) (A2) (B2)
                 (B2) (A1)
 The electronic state is 2-B1.
 Alpha  occ. eigenvalues --  -14.33076 -10.19529 -10.19528  -0.90842  -0.71229
 Alpha  occ. eigenvalues --   -0.61113  -0.47289  -0.45773  -0.45300  -0.40178
 Alpha  occ. eigenvalues --   -0.37509  -0.27582  -0.25392
 Alpha virt. eigenvalues --    0.01258   0.04333   0.06430   0.06947   0.08122
 Alpha virt. eigenvalues --    0.09481   0.10714   0.16145   0.16593   0.17393
 Alpha virt. eigenvalues --    0.18517   0.27496   0.29169   0.29328   0.30377
 Alpha virt. eigenvalues --    0.32166   0.32999   0.35259   0.35366   0.36276
 Alpha virt. eigenvalues --    0.36912   0.38871   0.43428   0.47684   0.51064
 Alpha virt. eigenvalues --    0.56736   0.60363   0.72723   0.72811   0.83112
 Alpha virt. eigenvalues --    0.89333   0.90278   0.93568   0.95501   0.96780
 Alpha virt. eigenvalues --    0.98255   0.99254   1.02152   1.06488   1.06553
 Alpha virt. eigenvalues --    1.06678   1.07311   1.14341   1.17425   1.21588
 Alpha virt. eigenvalues --    1.22809   1.23678   1.33529   1.33720   1.36739
 Alpha virt. eigenvalues --    1.49666   1.55774   1.56170   1.58412   1.61560
 Alpha virt. eigenvalues --    1.61954   1.67318   1.70548   1.75199   1.76203
 Alpha virt. eigenvalues --    1.79645   1.81800   1.94888   1.95270   1.95653
 Alpha virt. eigenvalues --    2.11023   2.17751   2.19776   2.23159   2.28902
 Alpha virt. eigenvalues --    2.41509   2.52137   2.53272   2.54621   2.56171
 Alpha virt. eigenvalues --    2.98491   3.19505   3.19771   3.20546   3.21933
 Alpha virt. eigenvalues --    3.25630   3.26693   3.27545   3.29210   3.40395
 Alpha virt. eigenvalues --    3.42491   3.48654   3.53270   3.62353   3.62941
 Alpha virt. eigenvalues --    3.69040   3.73520   3.75778   3.76579   3.82693
 Alpha virt. eigenvalues --    3.84134   3.84961   3.88793   3.89044   3.89620
 Alpha virt. eigenvalues --    3.95101   3.98201   4.17170   4.19623   4.20539
 Alpha virt. eigenvalues --    4.22546   4.29811   4.33877   4.37860   4.40251
 Alpha virt. eigenvalues --    4.40705   4.42156   4.45260   4.45707   4.52666
 Alpha virt. eigenvalues --    4.55655   4.58031   4.62052   4.63217   4.68929
 Alpha virt. eigenvalues --    4.69084   4.69626   4.70699   4.73299   4.73444
 Alpha virt. eigenvalues --    4.85652   4.86456   4.91141   4.93368   5.00396
 Alpha virt. eigenvalues --    5.04663   5.11730   5.20807   5.24299   5.29214
 Alpha virt. eigenvalues --    5.32959   5.45665   5.46721   5.53065   5.58637
 Alpha virt. eigenvalues --    5.61783   5.62956   5.66887   5.72867   5.75292
 Alpha virt. eigenvalues --    5.75362   5.77880   5.81401   5.82472   5.84637
 Alpha virt. eigenvalues --    5.86494   5.91089   5.94898   6.03830   6.03989
 Alpha virt. eigenvalues --    6.09671   6.12788   6.13075   6.14251   6.32796
 Alpha virt. eigenvalues --    6.51836
  Beta  occ. eigenvalues --  -14.31152 -10.19616 -10.19615  -0.87645  -0.70902
  Beta  occ. eigenvalues --   -0.59267  -0.45467  -0.44669  -0.44340  -0.39401
  Beta  occ. eigenvalues --   -0.37277  -0.25677
  Beta virt. eigenvalues --   -0.09043   0.01366   0.04422   0.06874   0.06938
  Beta virt. eigenvalues --    0.08606   0.09525   0.10888   0.16286   0.16783
  Beta virt. eigenvalues --    0.18193   0.18811   0.27539   0.29541   0.29663
  Beta virt. eigenvalues --    0.31130   0.32502   0.33159   0.35476   0.35528
  Beta virt. eigenvalues --    0.37090   0.37282   0.42536   0.44255   0.48363
  Beta virt. eigenvalues --    0.51197   0.57394   0.61353   0.73355   0.73368
  Beta virt. eigenvalues --    0.83239   0.89624   0.90389   0.94176   0.96035
  Beta virt. eigenvalues --    0.96951   0.98487   0.99840   1.02370   1.06818
  Beta virt. eigenvalues --    1.06859   1.07141   1.07413   1.15137   1.18590
  Beta virt. eigenvalues --    1.22097   1.24127   1.25372   1.34592   1.35381
  Beta virt. eigenvalues --    1.36985   1.49839   1.55893   1.56714   1.58746
  Beta virt. eigenvalues --    1.61787   1.64073   1.67548   1.74726   1.75385
  Beta virt. eigenvalues --    1.76540   1.80190   1.81975   1.95681   1.96178
  Beta virt. eigenvalues --    1.98257   2.16027   2.19142   2.20243   2.24229
  Beta virt. eigenvalues --    2.29564   2.42287   2.53795   2.54123   2.54920
  Beta virt. eigenvalues --    2.56660   2.99085   3.19567   3.20822   3.21231
  Beta virt. eigenvalues --    3.23541   3.26504   3.26899   3.28178   3.30138
  Beta virt. eigenvalues --    3.41092   3.42736   3.49919   3.55072   3.64283
  Beta virt. eigenvalues --    3.65054   3.69446   3.74160   3.76856   3.78108
  Beta virt. eigenvalues --    3.83394   3.84672   3.86706   3.89421   3.89628
  Beta virt. eigenvalues --    3.90369   3.95266   3.99659   4.17660   4.20993
  Beta virt. eigenvalues --    4.21174   4.23011   4.31839   4.34721   4.38947
  Beta virt. eigenvalues --    4.41322   4.41653   4.42651   4.45377   4.45837
  Beta virt. eigenvalues --    4.52693   4.55899   4.58700   4.62452   4.64125
  Beta virt. eigenvalues --    4.69729   4.69743   4.70054   4.71397   4.74058
  Beta virt. eigenvalues --    4.74150   4.86805   4.88909   4.93516   4.94863
  Beta virt. eigenvalues --    5.01267   5.05151   5.12493   5.23422   5.25148
  Beta virt. eigenvalues --    5.32196   5.33197   5.48827   5.52255   5.53582
  Beta virt. eigenvalues --    5.59040   5.62949   5.63566   5.67205   5.73785
  Beta virt. eigenvalues --    5.75747   5.75760   5.79409   5.82595   5.82896
  Beta virt. eigenvalues --    5.84961   5.88169   5.92015   5.94977   6.04310
  Beta virt. eigenvalues --    6.05213   6.10134   6.13183   6.14141   6.14720
  Beta virt. eigenvalues --    6.33142   6.52318
          Condensed to atoms (all electrons):
               1          2          3          4          5          6
     1  N    6.958065   0.283364   0.283364  -0.046908  -0.036179  -0.036179
     2  C    0.283364   4.507996  -0.073059   0.425423   0.408588   0.408588
     3  C    0.283364  -0.073059   4.507996   0.010900  -0.010724  -0.010724
     4  H   -0.046908   0.425423   0.010900   0.621696  -0.031188  -0.031188
     5  H   -0.036179   0.408588  -0.010724  -0.031188   0.678669  -0.039758
     6  H   -0.036179   0.408588  -0.010724  -0.031188  -0.039758   0.678669
     7  H   -0.046908   0.010900   0.425423   0.000004  -0.000907  -0.000907
     8  H   -0.036179  -0.010724   0.408588  -0.000907   0.012352  -0.001055
     9  H   -0.036179  -0.010724   0.408588  -0.000907  -0.001055   0.012352
               7          8          9
     1  N   -0.046908  -0.036179  -0.036179
     2  C    0.010900  -0.010724  -0.010724
     3  C    0.425423   0.408588   0.408588
     4  H    0.000004  -0.000907  -0.000907
     5  H   -0.000907   0.012352  -0.001055
     6  H   -0.000907  -0.001055   0.012352
     7  H    0.621696  -0.031188  -0.031188
     8  H   -0.031188   0.678669  -0.039758
     9  H   -0.031188  -0.039758   0.678669
          Atomic-Atomic Spin Densities.
               1          2          3          4          5          6
     1  N    1.044135  -0.026373  -0.026373  -0.001880  -0.022357  -0.022357
     2  C   -0.026373  -0.051535   0.004761   0.001607   0.006276   0.006276
     3  C   -0.026373   0.004761  -0.051535   0.000249   0.000858   0.000858
     4  H   -0.001880   0.001607   0.000249   0.000374   0.000311   0.000311
     5  H   -0.022357   0.006276   0.000858   0.000311   0.089686  -0.026223
     6  H   -0.022357   0.006276   0.000858   0.000311  -0.026223   0.089686
     7  H   -0.001880   0.000249   0.001607  -0.000003   0.000059   0.000059
     8  H   -0.022357   0.000858   0.006276   0.000059   0.010936  -0.006131
     9  H   -0.022357   0.000858   0.006276   0.000059  -0.006131   0.010936
               7          8          9
     1  N   -0.001880  -0.022357  -0.022357
     2  C    0.000249   0.000858   0.000858
     3  C    0.001607   0.006276   0.006276
     4  H   -0.000003   0.000059   0.000059
     5  H    0.000059   0.010936  -0.006131
     6  H    0.000059  -0.006131   0.010936
     7  H    0.000374   0.000311   0.000311
     8  H    0.000311   0.089686  -0.026223
     9  H    0.000311  -0.026223   0.089686
 Mulliken charges and spin densities:
               1          2
     1  N   -0.286261   0.898201
     2  C    0.049648  -0.057021
     3  C    0.049648  -0.057021
     4  H    0.053077   0.001089
     5  H    0.020203   0.053416
     6  H    0.020203   0.053416
     7  H    0.053077   0.001089
     8  H    0.020203   0.053416
     9  H    0.020203   0.053416
 Sum of Mulliken charges =  -0.00000   1.00000
 Mulliken charges and spin densities with hydrogens summed into heavy atoms:
               1          2
     1  N   -0.286261   0.898201
     2  C    0.143131   0.050899
     3  C    0.143131   0.050899
 Electronic spatial extent (au):  <R**2>=            192.9668
 Charge=             -0.0000 electrons
 Dipole moment (field-independent basis, Debye):
    X=              0.0000    Y=             -0.0000    Z=             -1.7777  Tot=              1.7777
 Quadrupole moment (field-independent basis, Debye-Ang):
   XX=            -20.1837   YY=            -18.3811   ZZ=            -22.8524
   XY=              0.0000   XZ=             -0.0000   YZ=              0.0000
 Traceless Quadrupole moment (field-independent basis, Debye-Ang):
   XX=              0.2887   YY=              2.0913   ZZ=             -2.3800
   XY=              0.0000   XZ=             -0.0000   YZ=              0.0000
 Octapole moment (field-independent basis, Debye-Ang**2):
  XXX=              0.0000  YYY=              0.0000  ZZZ=             -2.6406  XYY=              0.0000
  XXY=             -0.0000  XXZ=             -1.1493  XZZ=              0.0000  YZZ=             -0.0000
  YYZ=              1.6443  XYZ=              0.0000
 Hexadecapole moment (field-independent basis, Debye-Ang**3):
 XXXX=            -36.4683 YYYY=           -173.0332 ZZZZ=            -61.5290 XXXY=             -0.0000
 XXXZ=             -0.0000 YYYX=             -0.0000 YYYZ=              0.0000 ZZZX=             -0.0000
 ZZZY=              0.0000 XXYY=            -36.4660 XXZZ=            -14.8225 YYZZ=            -37.5326
 XXYZ=             -0.0000 YYXZ=             -0.0000 ZZXY=             -0.0000
 N-N= 7.671812402223D+01 E-N=-4.660159701276D+02  KE= 1.339642579911D+02
 Symmetry A1   KE= 8.810786323910D+01
 Symmetry A2   KE= 2.099004599858D+00
 Symmetry B1   KE= 3.694695116906D+00
 Symmetry B2   KE= 4.006269503526D+01
 Symmetry A1   SP= 2.338627474183D-15
 Symmetry A2   SP= 9.393845259770D-16
 Symmetry B1   SP= 1.000000000000D+00
 Symmetry B2   SP= 7.298197233320D-15
                          Isotropic Fermi Contact Couplings
        Atom                 a.u.       MegaHertz       Gauss      10(-4) cm-1
     1  N(14)              0.19792      63.95040      22.81909      21.33156
     2  C(13)             -0.03051     -34.30384     -12.24046     -11.44253
     3  C(13)             -0.03051     -34.30384     -12.24046     -11.44253
     4  H(1)               0.00003       0.14795       0.05279       0.04935
     5  H(1)               0.02517     112.52130      40.15040      37.53306
     6  H(1)               0.02517     112.52130      40.15040      37.53306
     7  H(1)               0.00003       0.14795       0.05279       0.04935
     8  H(1)               0.02517     112.52130      40.15040      37.53306
     9  H(1)               0.02517     112.52130      40.15040      37.53306
 --------------------------------------------------------
       Center         ----  Spin Dipole Couplings  ----
                      3XX-RR        3YY-RR        3ZZ-RR
 --------------------------------------------------------
     1   Atom        2.185495     -1.079330     -1.106165
     2   Atom       -0.007291      0.012799     -0.005507
     3   Atom       -0.007291      0.012799     -0.005507
     4   Atom       -0.008926      0.019506     -0.010581
     5   Atom       -0.006207      0.001832      0.004375
     6   Atom       -0.006207      0.001832      0.004375
     7   Atom       -0.008926      0.019506     -0.010581
     8   Atom       -0.006207      0.001832      0.004375
     9   Atom       -0.006207      0.001832      0.004375
 --------------------------------------------------------
                        XY            XZ            YZ
 --------------------------------------------------------
     1   Atom        0.000000      0.000000     -0.000000
     2   Atom        0.000000     -0.000000     -0.025395
     3   Atom        0.000000     -0.000000      0.025395
     4   Atom        0.000000      0.000000     -0.002551
     5   Atom        0.005969     -0.009082     -0.011333
     6   Atom       -0.005969      0.009082     -0.011333
     7   Atom        0.000000      0.000000      0.002551
     8   Atom       -0.005969     -0.009082      0.011333
     9   Atom        0.005969      0.009082      0.011333
 --------------------------------------------------------


 ---------------------------------------------------------------------------------
              Anisotropic Spin Dipole Couplings in Principal Axis System
 ---------------------------------------------------------------------------------

       Atom             a.u.   MegaHertz   Gauss  10(-4) cm-1        Axes

              Baa    -1.1062   -42.662   -15.223   -14.231  0.0000  0.0000  1.0000
     1 N(14)  Bbb    -1.0793   -41.627   -14.854   -13.885 -0.0000  1.0000  0.0000
              Bcc     2.1855    84.290    30.077    28.116  1.0000  0.0000  0.0000
 
              Baa    -0.0233    -3.133    -1.118    -1.045  0.0000  0.5749  0.8183
     2 C(13)  Bbb    -0.0073    -0.978    -0.349    -0.326  1.0000 -0.0000 -0.0000
              Bcc     0.0306     4.112     1.467     1.371  0.0000  0.8183 -0.5749
 
              Baa    -0.0233    -3.133    -1.118    -1.045  0.0000 -0.5749  0.8183
     3 C(13)  Bbb    -0.0073    -0.978    -0.349    -0.326  1.0000  0.0000 -0.0000
              Bcc     0.0306     4.112     1.467     1.371  0.0000  0.8183  0.5749
 
              Baa    -0.0108    -5.760    -2.055    -1.921 -0.0000  0.0839  0.9965
     4 H(1)   Bbb    -0.0089    -4.762    -1.699    -1.589  1.0000  0.0000  0.0000
              Bcc     0.0197    10.522     3.755     3.510  0.0000  0.9965 -0.0839
 
              Baa    -0.0115    -6.119    -2.183    -2.041  0.8369  0.0852  0.5407
     5 H(1)   Bbb    -0.0076    -4.068    -1.451    -1.357 -0.3819  0.7986  0.4652
              Bcc     0.0191    10.186     3.635     3.398 -0.3922 -0.5958  0.7009
 
              Baa    -0.0115    -6.119    -2.183    -2.041  0.8369 -0.0852 -0.5407
     6 H(1)   Bbb    -0.0076    -4.068    -1.451    -1.357  0.3819  0.7986  0.4652
              Bcc     0.0191    10.186     3.635     3.398  0.3922 -0.5958  0.7009
 
              Baa    -0.0108    -5.760    -2.055    -1.921 -0.0000 -0.0839  0.9965
     7 H(1)   Bbb    -0.0089    -4.762    -1.699    -1.589  1.0000 -0.0000  0.0000
              Bcc     0.0197    10.522     3.755     3.510  0.0000  0.9965  0.0839
 
              Baa    -0.0115    -6.119    -2.183    -2.041  0.8369 -0.0852  0.5407
     8 H(1)   Bbb    -0.0076    -4.068    -1.451    -1.357  0.3819  0.7986 -0.4652
              Bcc     0.0191    10.186     3.635     3.398 -0.3922  0.5958  0.7009
 
              Baa    -0.0115    -6.119    -2.183    -2.041  0.8369  0.0852 -0.5407
     9 H(1)   Bbb    -0.0076    -4.068    -1.451    -1.357 -0.3819  0.7986 -0.4652
              Bcc     0.0191    10.186     3.635     3.398  0.3922  0.5958  0.7009
 

 ---------------------------------------------------------------------------------

 Calling FoFJK, ICntrl=      2127 FMM=F ISym2X=1 I1Cent= 0 IOpClX= 1 NMat=1 NMatS=1 NMatT=0.
 ***** Axes restored to original set *****
 -------------------------------------------------------------------
 Center     Atomic                   Forces (Hartrees/Bohr)
 Number     Number              X              Y              Z
 -------------------------------------------------------------------
      1        7          -0.000000000   -0.004454843   -0.000000000
      2        6           0.002358036    0.000436948    0.000000000
      3        6          -0.002358036    0.000436948    0.000000000
      4        1          -0.002457469   -0.001661564    0.000000000
      5        1          -0.000527778    0.001726019   -0.001783808
      6        1          -0.000527778    0.001726019    0.001783808
      7        1           0.002457469   -0.001661564    0.000000000
      8        1           0.000527778    0.001726019   -0.001783808
      9        1           0.000527778    0.001726019    0.001783808
 -------------------------------------------------------------------
 Cartesian Forces:  Max     0.004454843 RMS     0.001663404

 GradGradGradGradGradGradGradGradGradGradGradGradGradGradGradGradGradGrad
 Berny optimization.
 FormGI is forming the generalized inverse of G from B-inverse, IUseBI=4.
 Internal  Forces:  Max     0.002965791 RMS     0.001492330
 Search for a local minimum.
 Step number   1 out of a maximum of   37
 All quantities printed in internal units (Hartrees-Bohrs-Radians)
 Mixed Optimization -- RFO/linear search
 Second derivative matrix not updated -- first step.
 ITU=  0
     Eigenvalues ---    0.01175   0.01175   0.09971   0.09971   0.09999
     Eigenvalues ---    0.09999   0.16000   0.16000   0.16000   0.16000
     Eigenvalues ---    0.16000   0.16000   0.25000   0.33258   0.33258
     Eigenvalues ---    0.33258   0.33258   0.34432   0.34432   0.39718
     Eigenvalues ---    0.39718
 RFO step:  Lambda=-1.89009197D-04 EMin= 1.17540168D-02
 Linear search not attempted -- first point.
 Iteration  1 RMS(Cart)=  0.00457357 RMS(Int)=  0.00001178
 Iteration  2 RMS(Cart)=  0.00002261 RMS(Int)=  0.00000391
 Iteration  3 RMS(Cart)=  0.00000000 RMS(Int)=  0.00000391
 ClnCor:  largest displacement from symmetrization is 2.57D-12 for atom     6.
 Variable       Old X    -DE/DX   Delta X   Delta X   Delta X     New X
                                 (Linear)    (Quad)   (Total)
    R1        2.71938  -0.00221   0.00000  -0.00555  -0.00555   2.71383
    R2        2.71938  -0.00221   0.00000  -0.00555  -0.00555   2.71383
    R3        2.06607  -0.00297   0.00000  -0.00861  -0.00861   2.05746
    R4        2.08600  -0.00248   0.00000  -0.00745  -0.00745   2.07855
    R5        2.08600  -0.00248   0.00000  -0.00745  -0.00745   2.07855
    R6        2.06607  -0.00297   0.00000  -0.00861  -0.00861   2.05746
    R7        2.08600  -0.00248   0.00000  -0.00745  -0.00745   2.07855
    R8        2.08600  -0.00248   0.00000  -0.00745  -0.00745   2.07855
    A1        1.94959   0.00231   0.00000   0.00923   0.00923   1.95882
    A2        1.92966   0.00020   0.00000   0.00147   0.00147   1.93113
    A3        1.94512  -0.00066   0.00000  -0.00425  -0.00425   1.94087
    A4        1.94512  -0.00066   0.00000  -0.00425  -0.00425   1.94087
    A5        1.89487   0.00031   0.00000   0.00213   0.00213   1.89701
    A6        1.89487   0.00031   0.00000   0.00213   0.00213   1.89701
    A7        1.85153   0.00056   0.00000   0.00308   0.00307   1.85460
    A8        1.92966   0.00020   0.00000   0.00147   0.00147   1.93113
    A9        1.94512  -0.00066   0.00000  -0.00425  -0.00425   1.94087
   A10        1.94512  -0.00066   0.00000  -0.00425  -0.00425   1.94087
   A11        1.89487   0.00031   0.00000   0.00213   0.00213   1.89701
   A12        1.89487   0.00031   0.00000   0.00213   0.00213   1.89701
   A13        1.85153   0.00056   0.00000   0.00308   0.00307   1.85460
    D1        3.14159   0.00000   0.00000   0.00000   0.00000   3.14159
    D2       -1.03240   0.00009   0.00000   0.00086   0.00085  -1.03155
    D3        1.03240  -0.00009   0.00000  -0.00086  -0.00085   1.03155
    D4        3.14159   0.00000   0.00000   0.00000   0.00000   3.14159
    D5        1.03240  -0.00009   0.00000  -0.00086  -0.00085   1.03155
    D6       -1.03240   0.00009   0.00000   0.00086   0.00085  -1.03155
         Item               Value     Threshold  Converged?
 Maximum Force            0.002966     0.000450     NO 
 RMS     Force            0.001492     0.000300     NO 
 Maximum Displacement     0.015115     0.001800     NO 
 RMS     Displacement     0.004577     0.001200     NO 
 Predicted change in Energy=-9.456101D-05
 GradGradGradGradGradGradGradGradGradGradGradGradGradGradGradGradGradGrad

                          Input orientation:                          
 ---------------------------------------------------------------------
 Center     Atomic      Atomic             Coordinates (Angstroms)
 Number     Number       Type             X           Y           Z
 ---------------------------------------------------------------------
      1          7           0        0.000000    0.574734    0.000000
      2          6           0        1.192202   -0.225911    0.000000
      3          6           0       -1.192202   -0.225911   -0.000000
      4          1           0        2.078910    0.405873    0.000000
      5          1           0        1.228898   -0.884839    0.879939
      6          1           0        1.228898   -0.884839   -0.879939
      7          1           0       -2.078910    0.405873   -0.000000
      8          1           0       -1.228898   -0.884839    0.879939
      9          1           0       -1.228898   -0.884839   -0.879939
 ---------------------------------------------------------------------
                    Distance matrix (angstroms):
                    1          2          3          4          5
     1  N    0.000000
     2  C    1.436099   0.000000
     3  C    1.436099   2.384404   0.000000
     4  H    2.085757   1.088762   3.331565   0.000000
     5  H    2.101151   1.099921   2.658985   1.778413   0.000000
     6  H    2.101151   1.099921   2.658985   1.778413   1.759878
     7  H    2.085757   3.331565   1.088762   4.157821   3.658118
     8  H    2.101151   2.658985   1.099921   3.658118   2.457795
     9  H    2.101151   2.658985   1.099921   3.658118   3.022900
                    6          7          8          9
     6  H    0.000000
     7  H    3.658118   0.000000
     8  H    3.022900   1.778413   0.000000
     9  H    2.457795   1.778413   1.759878   0.000000
 Stoichiometry    C2H6N(2)
 Framework group  C2V[C2(N),SGV(C2H2),X(H4)]
 Deg. of freedom     7
 Full point group                 C2V     NOp   4
 Largest Abelian subgroup         C2V     NOp   4
 Largest concise Abelian subgroup C2V     NOp   4
                         Standard orientation:                         
 ---------------------------------------------------------------------
 Center     Atomic      Atomic             Coordinates (Angstroms)
 Number     Number       Type             X           Y           Z
 ---------------------------------------------------------------------
      1          7           0       -0.000000   -0.000000    0.631350
      2          6           0       -0.000000    1.192202   -0.169295
      3          6           0       -0.000000   -1.192202   -0.169295
      4          1           0       -0.000000    2.078910    0.462490
      5          1           0        0.879939    1.228898   -0.828223
      6          1           0       -0.879939    1.228898   -0.828223
      7          1           0       -0.000000   -2.078910    0.462490
      8          1           0        0.879939   -1.228898   -0.828223
      9          1           0       -0.879939   -1.228898   -0.828223
 ---------------------------------------------------------------------
 Rotational constants (GHZ):          40.5610118           9.7126430           8.6760314
 Basis read from rwf:  (5D, 7F)
 There are    66 symmetry adapted cartesian basis functions of A1  symmetry.
 There are    33 symmetry adapted cartesian basis functions of A2  symmetry.
 There are    38 symmetry adapted cartesian basis functions of B1  symmetry.
 There are    58 symmetry adapted cartesian basis functions of B2  symmetry.
 There are    57 symmetry adapted basis functions of A1  symmetry.
 There are    31 symmetry adapted basis functions of A2  symmetry.
 There are    35 symmetry adapted basis functions of B1  symmetry.
 There are    51 symmetry adapted basis functions of B2  symmetry.
   174 basis functions,   261 primitive gaussians,   195 cartesian basis functions
    13 alpha electrons       12 beta electrons
       nuclear repulsion energy        76.8854573787 Hartrees.
 NAtoms=    9 NActive=    9 NUniq=    4 SFac= 4.00D+00 NAtFMM=   60 NAOKFM=F Big=F
 Integral buffers will be    131072 words long.
 Raffenetti 2 integral format.
 Two-electron integral symmetry is turned on.
 One-electron integrals computed using PRISM.
 NBasis=   174 RedAO= T EigKep=  1.04D-03  NBF=    57    31    35    51
 NBsUse=   174 1.00D-06 EigRej= -1.00D+00 NBFU=    57    31    35    51
 Initial guess from the checkpoint file:  "/wrk/irikura/Gau-10432.chk"
 B after Tr=    -0.000000    0.000000    0.000000
         Rot=    1.000000   -0.000000   -0.000000   -0.000000 Ang=   0.00 deg.
 Initial guess orbital symmetries:
 Alpha Orbitals:
       Occupied  (A1) (B2) (A1) (A1) (B2) (A1) (B1) (A1) (B2) (A2)
                 (B2) (A1) (B1)
       Virtual   (A1) (B2) (B1) (A1) (A1) (B2) (A2) (B2) (A1) (B1)
                 (A2) (B2) (B2) (A1) (A1) (B1) (A1) (A2) (B2) (A1)
                 (B2) (B1) (A1) (B2) (B2) (A1) (B1) (A1) (A2) (B2)
                 (B1) (A1) (A2) (B1) (B2) (A1) (A2) (B2) (A2) (B1)
                 (A1) (B2) (A1) (A2) (A1) (B1) (B2) (A1) (B1) (B2)
                 (A1) (B2) (A2) (B2) (B1) (A1) (A1) (B1) (B2) (A2)
                 (A1) (B2) (A1) (B2) (A2) (B1) (A1) (B2) (A1) (A1)
                 (B2) (B1) (A2) (B2) (A1) (B2) (B2) (A2) (A1) (B1)
                 (B1) (A2) (A1) (B1) (A2) (B2) (A1) (B2) (A1) (B1)
                 (A1) (A2) (B1) (B2) (B1) (A2) (B2) (A2) (A1) (B1)
                 (B2) (A1) (A2) (B1) (A1) (B2) (A1) (B2) (A2) (B1)
                 (A1) (B2) (B1) (A1) (A2) (B2) (B1) (B2) (A2) (A1)
                 (A2) (B2) (A1) (B1) (A1) (B2) (B1) (A2) (A1) (A1)
                 (B2) (B2) (B1) (A1) (A2) (B2) (B1) (A1) (B2) (A1)
                 (A2) (A1) (B2) (B1) (B1) (B2) (A2) (A2) (A1) (B2)
                 (B1) (A2) (A1) (A1) (B2) (B1) (A1) (A2) (B2) (B2)
                 (A1)
 Beta  Orbitals:
       Occupied  (A1) (B2) (A1) (A1) (B2) (A1) (A1) (B1) (B2) (A2)
                 (B2) (A1)
       Virtual   (B1) (A1) (B2) (B1) (A1) (A1) (B2) (A2) (B2) (A1)
                 (B1) (A2) (B2) (B2) (A1) (A1) (B1) (A1) (B2) (A2)
                 (B2) (A1) (B1) (A1) (B2) (B2) (A1) (B1) (A2) (A1)
                 (B2) (B1) (A1) (A2) (B1) (B2) (A1) (A2) (B2) (A1)
                 (B1) (A2) (B2) (A1) (A2) (A1) (B2) (B1) (B1) (A1)
                 (B2) (A1) (B2) (A2) (B2) (B1) (A1) (A1) (B1) (B2)
                 (A2) (A1) (B2) (B2) (A1) (A2) (B1) (A1) (B2) (A1)
                 (A1) (B2) (A2) (B1) (B2) (A1) (B2) (B2) (A2) (A1)
                 (B1) (B1) (A2) (A1) (B1) (A2) (B2) (A1) (B2) (B1)
                 (A1) (A1) (A2) (B2) (B1) (B1) (A2) (B2) (A1) (A2)
                 (B1) (B2) (A1) (A2) (B1) (A1) (B2) (A1) (B2) (A2)
                 (A1) (B1) (B2) (B1) (A1) (A2) (B2) (B1) (B2) (A2)
                 (A1) (A2) (B2) (A1) (A1) (B1) (B2) (B1) (A2) (A1)
                 (A1) (B2) (B2) (B1) (A1) (A2) (B2) (B1) (A1) (B2)
                 (A1) (A2) (A1) (B2) (B1) (B1) (B2) (A2) (A2) (A1)
                 (B2) (B1) (A2) (A1) (B2) (A1) (B1) (A1) (A2) (B2)
                 (B2) (A1)
 Initial guess <Sx>= 0.0000 <Sy>= 0.0000 <Sz>= 0.5000 <S**2>= 0.7542 S= 0.5021
 Keep R1 and R2 ints in memory in symmetry-blocked form, NReq=145047579.
 Requested convergence on RMS density matrix=1.00D-08 within 128 cycles.
 Requested convergence on MAX density matrix=1.00D-06.
 Requested convergence on             energy=1.00D-06.
 No special actions if energy rises.
 SCF Done:  E(UB3LYP) =  -134.567081426     A.U. after    8 cycles
            NFock=  8  Conv=0.61D-08     -V/T= 2.0042
 <Sx>= 0.0000 <Sy>= 0.0000 <Sz>= 0.5000 <S**2>= 0.7542 S= 0.5021
 <L.S>=  0.00000000000    
 Annihilation of the first spin contaminant:
 S**2 before annihilation     0.7542,   after     0.7500
 Calling FoFJK, ICntrl=      2127 FMM=F ISym2X=1 I1Cent= 0 IOpClX= 1 NMat=1 NMatS=1 NMatT=0.
 ***** Axes restored to original set *****
 -------------------------------------------------------------------
 Center     Atomic                   Forces (Hartrees/Bohr)
 Number     Number              X              Y              Z
 -------------------------------------------------------------------
      1        7           0.000000000   -0.000433416   -0.000000000
      2        6          -0.000228340    0.000228955    0.000000000
      3        6           0.000228340    0.000228955   -0.000000000
      4        1          -0.000147313    0.000014383    0.000000000
      5        1          -0.000008993   -0.000013315    0.000013676
      6        1          -0.000008993   -0.000013315   -0.000013676
      7        1           0.000147313    0.000014383    0.000000000
      8        1           0.000008993   -0.000013315    0.000013676
      9        1           0.000008993   -0.000013315   -0.000013676
 -------------------------------------------------------------------
 Cartesian Forces:  Max     0.000433416 RMS     0.000128029

 GradGradGradGradGradGradGradGradGradGradGradGradGradGradGradGradGradGrad
 Berny optimization.
 Using GEDIIS/GDIIS optimizer.
 FormGI is forming the generalized inverse of G from B-inverse, IUseBI=4.
 Internal  Forces:  Max     0.000447604 RMS     0.000134326
 Search for a local minimum.
 Step number   2 out of a maximum of   37
 All quantities printed in internal units (Hartrees-Bohrs-Radians)
 Mixed Optimization -- En-DIIS/RFO-DIIS
 Update second derivatives using D2CorX and points    1    2
 DE= -9.81D-05 DEPred=-9.46D-05 R= 1.04D+00
 TightC=F SS=  1.41D+00  RLast= 2.52D-02 DXNew= 5.0454D-01 7.5516D-02
 Trust test= 1.04D+00 RLast= 2.52D-02 DXMaxT set to 3.00D-01
 ITU=  1  0
 Use linear search instead of GDIIS.
     Eigenvalues ---    0.01175   0.01175   0.09979   0.09979   0.10041
     Eigenvalues ---    0.10058   0.15808   0.16000   0.16000   0.16000
     Eigenvalues ---    0.16000   0.16236   0.24897   0.33258   0.33258
     Eigenvalues ---    0.33258   0.33300   0.33951   0.34432   0.38827
     Eigenvalues ---    0.39718
 RFO step:  Lambda=-1.32008350D-06 EMin= 1.17540168D-02
 Quartic linear search produced a step of  0.03627.
 Iteration  1 RMS(Cart)=  0.00083714 RMS(Int)=  0.00000040
 Iteration  2 RMS(Cart)=  0.00000041 RMS(Int)=  0.00000016
 ClnCor:  largest displacement from symmetrization is 8.20D-13 for atom     6.
 Variable       Old X    -DE/DX   Delta X   Delta X   Delta X     New X
                                 (Linear)    (Quad)   (Total)
    R1        2.71383  -0.00045  -0.00020  -0.00100  -0.00121   2.71263
    R2        2.71383  -0.00045  -0.00020  -0.00100  -0.00121   2.71263
    R3        2.05746  -0.00011  -0.00031  -0.00008  -0.00039   2.05707
    R4        2.07855   0.00002  -0.00027   0.00028   0.00001   2.07856
    R5        2.07855   0.00002  -0.00027   0.00028   0.00001   2.07856
    R6        2.05746  -0.00011  -0.00031  -0.00008  -0.00039   2.05707
    R7        2.07855   0.00002  -0.00027   0.00028   0.00001   2.07856
    R8        2.07855   0.00002  -0.00027   0.00028   0.00001   2.07856
    A1        1.95882   0.00007   0.00033   0.00001   0.00034   1.95916
    A2        1.93113  -0.00014   0.00005  -0.00103  -0.00097   1.93016
    A3        1.94087   0.00002  -0.00015   0.00027   0.00012   1.94099
    A4        1.94087   0.00002  -0.00015   0.00027   0.00012   1.94099
    A5        1.89701   0.00005   0.00008   0.00023   0.00031   1.89731
    A6        1.89701   0.00005   0.00008   0.00023   0.00031   1.89731
    A7        1.85460   0.00001   0.00011   0.00007   0.00019   1.85478
    A8        1.93113  -0.00014   0.00005  -0.00103  -0.00097   1.93016
    A9        1.94087   0.00002  -0.00015   0.00027   0.00012   1.94099
   A10        1.94087   0.00002  -0.00015   0.00027   0.00012   1.94099
   A11        1.89701   0.00005   0.00008   0.00023   0.00031   1.89731
   A12        1.89701   0.00005   0.00008   0.00023   0.00031   1.89731
   A13        1.85460   0.00001   0.00011   0.00007   0.00019   1.85478
    D1        3.14159  -0.00000   0.00000  -0.00000   0.00000   3.14159
    D2       -1.03155  -0.00002   0.00003  -0.00022  -0.00019  -1.03174
    D3        1.03155   0.00002  -0.00003   0.00022   0.00019   1.03174
    D4        3.14159  -0.00000   0.00000  -0.00000   0.00000   3.14159
    D5        1.03155   0.00002  -0.00003   0.00022   0.00019   1.03174
    D6       -1.03155  -0.00002   0.00003  -0.00022  -0.00019  -1.03174
         Item               Value     Threshold  Converged?
 Maximum Force            0.000448     0.000450     YES
 RMS     Force            0.000134     0.000300     YES
 Maximum Displacement     0.002427     0.001800     NO 
 RMS     Displacement     0.000837     0.001200     YES
 Predicted change in Energy=-7.822470D-07
 GradGradGradGradGradGradGradGradGradGradGradGradGradGradGradGradGradGrad

                          Input orientation:                          
 ---------------------------------------------------------------------
 Center     Atomic      Atomic             Coordinates (Angstroms)
 Number     Number       Type             X           Y           Z
 ---------------------------------------------------------------------
      1          7           0        0.000000    0.573995   -0.000000
      2          6           0        1.191810   -0.226090    0.000000
      3          6           0       -1.191810   -0.226090   -0.000000
      4          1           0        2.077626    0.406587    0.000000
      5          1           0        1.228826   -0.884921    0.880004
      6          1           0        1.228826   -0.884921   -0.880004
      7          1           0       -2.077626    0.406587   -0.000000
      8          1           0       -1.228826   -0.884921    0.880004
      9          1           0       -1.228826   -0.884921   -0.880004
 ---------------------------------------------------------------------
                    Distance matrix (angstroms):
                    1          2          3          4          5
     1  N    0.000000
     2  C    1.435461   0.000000
     3  C    1.435461   2.383621   0.000000
     4  H    2.084360   1.088554   3.330089   0.000000
     5  H    2.100680   1.099925   2.658561   1.778444   0.000000
     6  H    2.100680   1.099925   2.658561   1.778444   1.760007
     7  H    2.084360   3.330089   1.088554   4.155252   3.657188
     8  H    2.100680   2.658561   1.099925   3.657188   2.457652
     9  H    2.100680   2.658561   1.099925   3.657188   3.022859
                    6          7          8          9
     6  H    0.000000
     7  H    3.657188   0.000000
     8  H    3.022859   1.778444   0.000000
     9  H    2.457652   1.778444   1.760007   0.000000
 Stoichiometry    C2H6N(2)
 Framework group  C2V[C2(N),SGV(C2H2),X(H4)]
 Deg. of freedom     7
 Full point group                 C2V     NOp   4
 Largest Abelian subgroup         C2V     NOp   4
 Largest concise Abelian subgroup C2V     NOp   4
                         Standard orientation:                         
 ---------------------------------------------------------------------
 Center     Atomic      Atomic             Coordinates (Angstroms)
 Number     Number       Type             X           Y           Z
 ---------------------------------------------------------------------
      1          7           0        0.000000    0.000000    0.630860
      2          6           0       -0.000000    1.191810   -0.169225
      3          6           0       -0.000000   -1.191810   -0.169225
      4          1           0        0.000000    2.077626    0.463452
      5          1           0        0.880004    1.228826   -0.828056
      6          1           0       -0.880004    1.228826   -0.828056
      7          1           0       -0.000000   -2.077626    0.463452
      8          1           0        0.880004   -1.228826   -0.828056
      9          1           0       -0.880004   -1.228826   -0.828056
 ---------------------------------------------------------------------
 Rotational constants (GHZ):          40.5864756           9.7188869           8.6823161
 Basis read from rwf:  (5D, 7F)
 There are    66 symmetry adapted cartesian basis functions of A1  symmetry.
 There are    33 symmetry adapted cartesian basis functions of A2  symmetry.
 There are    38 symmetry adapted cartesian basis functions of B1  symmetry.
 There are    58 symmetry adapted cartesian basis functions of B2  symmetry.
 There are    57 symmetry adapted basis functions of A1  symmetry.
 There are    31 symmetry adapted basis functions of A2  symmetry.
 There are    35 symmetry adapted basis functions of B1  symmetry.
 There are    51 symmetry adapted basis functions of B2  symmetry.
   174 basis functions,   261 primitive gaussians,   195 cartesian basis functions
    13 alpha electrons       12 beta electrons
       nuclear repulsion energy        76.9086636144 Hartrees.
 NAtoms=    9 NActive=    9 NUniq=    4 SFac= 4.00D+00 NAtFMM=   60 NAOKFM=F Big=F
 Integral buffers will be    131072 words long.
 Raffenetti 2 integral format.
 Two-electron integral symmetry is turned on.
 One-electron integrals computed using PRISM.
 NBasis=   174 RedAO= T EigKep=  1.04D-03  NBF=    57    31    35    51
 NBsUse=   174 1.00D-06 EigRej= -1.00D+00 NBFU=    57    31    35    51
 Initial guess from the checkpoint file:  "/wrk/irikura/Gau-10432.chk"
 B after Tr=     0.000000    0.000000   -0.000000
         Rot=    1.000000    0.000000    0.000000    0.000000 Ang=   0.00 deg.
 Initial guess orbital symmetries:
 Alpha Orbitals:
       Occupied  (A1) (B2) (A1) (A1) (B2) (A1) (B1) (A1) (B2) (A2)
                 (B2) (A1) (B1)
       Virtual   (A1) (B2) (B1) (A1) (A1) (B2) (A2) (B2) (A1) (B1)
                 (A2) (B2) (A1) (B2) (A1) (B1) (A1) (A2) (B2) (A1)
                 (B2) (B1) (A1) (B2) (B2) (A1) (B1) (A2) (A1) (B2)
                 (B1) (A1) (A2) (B1) (B2) (A1) (A2) (B2) (B1) (A2)
                 (A1) (B2) (A1) (A2) (A1) (B2) (B1) (A1) (B1) (B2)
                 (A1) (B2) (A2) (B2) (B1) (A1) (A1) (B1) (B2) (A2)
                 (A1) (B2) (A1) (B2) (A2) (B1) (A1) (B2) (A1) (A1)
                 (B2) (B1) (A2) (B2) (A1) (B2) (B2) (A2) (A1) (B1)
                 (B1) (A2) (A1) (B1) (A2) (B2) (A1) (B2) (A1) (B1)
                 (A1) (A2) (B1) (B2) (B1) (A2) (B2) (A2) (A1) (B1)
                 (B2) (A1) (A2) (B1) (A1) (B2) (A1) (B2) (A2) (B1)
                 (A1) (B2) (B1) (A1) (A2) (B2) (B1) (B2) (A2) (A1)
                 (A2) (B2) (A1) (B1) (A1) (B2) (B1) (A2) (A1) (A1)
                 (B2) (B2) (B1) (A1) (A2) (B2) (B1) (A1) (B2) (A1)
                 (A2) (A1) (B2) (B1) (B1) (B2) (A2) (A2) (A1) (B2)
                 (B1) (A2) (A1) (B2) (A1) (B1) (A1) (A2) (B2) (B2)
                 (A1)
 Beta  Orbitals:
       Occupied  (A1) (B2) (A1) (A1) (B2) (A1) (A1) (B1) (B2) (A2)
                 (B2) (A1)
       Virtual   (B1) (A1) (B2) (B1) (A1) (A1) (B2) (A2) (B2) (A1)
                 (B1) (A2) (B2) (A1) (B2) (A1) (B1) (A1) (B2) (A2)
                 (B2) (A1) (B1) (A1) (B2) (B2) (A1) (B1) (A2) (A1)
                 (B2) (B1) (A1) (A2) (B1) (B2) (A1) (A2) (B2) (A1)
                 (B1) (A2) (B2) (A1) (A2) (A1) (B2) (B1) (B1) (A1)
                 (B2) (A1) (B2) (A2) (B2) (B1) (A1) (A1) (B1) (B2)
                 (A2) (A1) (B2) (B2) (A1) (A2) (B1) (A1) (B2) (A1)
                 (A1) (B2) (A2) (B1) (B2) (A1) (B2) (B2) (A2) (A1)
                 (B1) (B1) (A2) (A1) (B1) (A2) (B2) (A1) (B2) (B1)
                 (A1) (A1) (A2) (B2) (B1) (B1) (A2) (B2) (A1) (A2)
                 (B1) (B2) (A1) (A2) (B1) (A1) (B2) (A1) (B2) (A2)
                 (A1) (B1) (B2) (B1) (A1) (A2) (B2) (B1) (B2) (A2)
                 (A1) (A2) (B2) (A1) (B1) (A1) (B2) (B1) (A2) (A1)
                 (A1) (B2) (B2) (B1) (A1) (B2) (A2) (B1) (A1) (B2)
                 (A1) (A2) (A1) (B2) (B1) (B1) (B2) (A2) (A1) (A2)
                 (B2) (B1) (A2) (A1) (B2) (A1) (B1) (A1) (A2) (B2)
                 (B2) (A1)
 Initial guess <Sx>= 0.0000 <Sy>= 0.0000 <Sz>= 0.5000 <S**2>= 0.7542 S= 0.5021
 Keep R1 and R2 ints in memory in symmetry-blocked form, NReq=145047579.
 Requested convergence on RMS density matrix=1.00D-08 within 128 cycles.
 Requested convergence on MAX density matrix=1.00D-06.
 Requested convergence on             energy=1.00D-06.
 No special actions if energy rises.
 SCF Done:  E(UB3LYP) =  -134.567082171     A.U. after    7 cycles
            NFock=  7  Conv=0.43D-08     -V/T= 2.0042
 <Sx>= 0.0000 <Sy>= 0.0000 <Sz>= 0.5000 <S**2>= 0.7542 S= 0.5021
 <L.S>=  0.00000000000    
 Annihilation of the first spin contaminant:
 S**2 before annihilation     0.7542,   after     0.7500
 Calling FoFJK, ICntrl=      2127 FMM=F ISym2X=1 I1Cent= 0 IOpClX= 1 NMat=1 NMatS=1 NMatT=0.
 ***** Axes restored to original set *****
 -------------------------------------------------------------------
 Center     Atomic                   Forces (Hartrees/Bohr)
 Number     Number              X              Y              Z
 -------------------------------------------------------------------
      1        7          -0.000000000   -0.000163982   -0.000000000
      2        6          -0.000045570    0.000159251    0.000000000
      3        6           0.000045570    0.000159251   -0.000000000
      4        1           0.000051676   -0.000011998    0.000000000
      5        1           0.000009583   -0.000032631    0.000014138
      6        1           0.000009583   -0.000032631   -0.000014138
      7        1          -0.000051676   -0.000011998    0.000000000
      8        1          -0.000009583   -0.000032631    0.000014138
      9        1          -0.000009583   -0.000032631   -0.000014138
 -------------------------------------------------------------------
 Cartesian Forces:  Max     0.000163982 RMS     0.000058632

 GradGradGradGradGradGradGradGradGradGradGradGradGradGradGradGradGradGrad
 Berny optimization.
 Using GEDIIS/GDIIS optimizer.
 FormGI is forming the generalized inverse of G from B-inverse, IUseBI=4.
 Internal  Forces:  Max     0.000160299 RMS     0.000040787
 Search for a local minimum.
 Step number   3 out of a maximum of   37
 All quantities printed in internal units (Hartrees-Bohrs-Radians)
 Mixed Optimization -- En-DIIS/RFO-DIIS
 Swapping is turned off.
 Update second derivatives using D2CorX and points    1    2    3
 DE= -7.45D-07 DEPred=-7.82D-07 R= 9.53D-01
 Trust test= 9.53D-01 RLast= 2.42D-03 DXMaxT set to 3.00D-01
 ITU=  0  1  0
     Eigenvalues ---    0.01175   0.01175   0.09985   0.09985   0.10040
     Eigenvalues ---    0.10270   0.15996   0.16000   0.16000   0.16000
     Eigenvalues ---    0.16000   0.17769   0.21447   0.33258   0.33258
     Eigenvalues ---    0.33258   0.33697   0.34432   0.35547   0.39303
     Eigenvalues ---    0.39718
 En-DIIS/RFO-DIIS/Sim-DIIS IScMMF=       -3 using points:     3    2
 RFO step:  Lambda=-1.89006601D-07.
 DidBck=F Rises=F RFO-DIIS coefs:    0.98331    0.01669
 Iteration  1 RMS(Cart)=  0.00033154 RMS(Int)=  0.00000005
 Iteration  2 RMS(Cart)=  0.00000007 RMS(Int)=  0.00000001
 ClnCor:  largest displacement from symmetrization is 5.96D-13 for atom     6.
 Variable       Old X    -DE/DX   Delta X   Delta X   Delta X     New X
                                 (Linear)    (Quad)   (Total)
    R1        2.71263  -0.00002   0.00002  -0.00022  -0.00020   2.71243
    R2        2.71263  -0.00002   0.00002  -0.00022  -0.00020   2.71243
    R3        2.05707   0.00004   0.00001   0.00004   0.00005   2.05712
    R4        2.07856   0.00003  -0.00000   0.00009   0.00009   2.07864
    R5        2.07856   0.00003  -0.00000   0.00009   0.00009   2.07864
    R6        2.05707   0.00004   0.00001   0.00004   0.00005   2.05712
    R7        2.07856   0.00003  -0.00000   0.00009   0.00009   2.07864
    R8        2.07856   0.00003  -0.00000   0.00009   0.00009   2.07864
    A1        1.95916   0.00016  -0.00001   0.00066   0.00066   1.95982
    A2        1.93016   0.00006   0.00002   0.00026   0.00027   1.93044
    A3        1.94099   0.00001  -0.00000   0.00003   0.00003   1.94102
    A4        1.94099   0.00001  -0.00000   0.00003   0.00003   1.94102
    A5        1.89731  -0.00002  -0.00001  -0.00006  -0.00006   1.89725
    A6        1.89731  -0.00002  -0.00001  -0.00006  -0.00006   1.89725
[...]
 Atom     8 has atomic number  1 and mass   1.00783
 Atom     9 has atomic number  1 and mass   1.00783
 Molecular mass:    44.05002 amu.
 Principal axes and moments of inertia in atomic units:
                           1         2         3
     Eigenvalues --    44.46657 185.69423 207.86403
           X            0.00000   0.00000   1.00000
           Y            1.00000   0.00000  -0.00000
           Z           -0.00000   1.00000  -0.00000
 This molecule is an asymmetric top.
 Rotational symmetry number  2.
 Rotational temperatures (Kelvin)      1.94784     0.46643     0.41669
 Rotational constants (GHZ):          40.58648     9.71889     8.68232
 Zero-point vibrational energy     201580.1 (Joules/Mol)
                                   48.17879 (Kcal/Mol)
 Warning -- explicit consideration of   3 degrees of freedom as
           vibrations may cause significant error
 Vibrational temperatures:    130.89   190.08   622.06  1314.39  1340.18
          (Kelvin)           1453.37  1467.69  1739.03  1740.00  1999.81
                             2029.27  2104.59  2115.17  2140.92  2142.53
                             4227.78  4242.89  4280.92  4290.97  4457.57
                             4458.91
 
 Zero-point correction=                           0.076778 (Hartree/Particle)
 Thermal correction to Energy=                    0.081554
 Thermal correction to Enthalpy=                  0.082498
 Thermal correction to Gibbs Free Energy=         0.050500
 Sum of electronic and zero-point Energies=           -134.490304
 Sum of electronic and thermal Energies=              -134.485528
 Sum of electronic and thermal Enthalpies=            -134.484584
 Sum of electronic and thermal Free Energies=         -134.516582
 
                     E (Thermal)             CV                S
                      KCal/Mol        Cal/Mol-Kelvin    Cal/Mol-Kelvin
 Total                   51.176             13.836             67.345
 Electronic               0.000              0.000              1.377
 Translational            0.889              2.981             37.274
 Rotational               0.889              2.981             20.689
 Vibrational             49.399              7.874              8.004
 Vibration     1          0.602              1.956              3.639
 Vibration     2          0.612              1.921              2.915
 Vibration     3          0.793              1.400              0.851
                       Q            Log10(Q)             Ln(Q)
 Total Bot       0.590760D-23        -23.228589        -53.485802
 Total V=0       0.122099D+13         12.086711         27.830681
 Vib (Bot)       0.346647D-34        -34.460113        -79.347343
 Vib (Bot)    1  0.225960D+01          0.354031          0.815187
 Vib (Bot)    2  0.154232D+01          0.188175          0.433290
 Vib (Bot)    3  0.402259D+00         -0.395494         -0.910658
 Vib (V=0)       0.716451D+01          0.855187          1.969140
 Vib (V=0)    1  0.281426D+01          0.449364          1.034698
 Vib (V=0)    2  0.212135D+01          0.326611          0.752050
 Vib (V=0)    3  0.114173D+01          0.057562          0.132541
 Electronic      0.200000D+01          0.301030          0.693147
 Translational   0.114914D+08          7.060373         16.257110
 Rotational      0.741517D+04          3.870121          8.911284
 ***** Axes restored to original set *****
 -------------------------------------------------------------------
 Center     Atomic                   Forces (Hartrees/Bohr)
 Number     Number              X              Y              Z
 -------------------------------------------------------------------
      1        7          -0.000000000   -0.000163982   -0.000000000
      2        6          -0.000045598    0.000159214    0.000000000
      3        6           0.000045598    0.000159214    0.000000000
      4        1           0.000051701   -0.000011974    0.000000000
      5        1           0.000009579   -0.000032625    0.000014123
      6        1           0.000009579   -0.000032625   -0.000014123
      7        1          -0.000051701   -0.000011974    0.000000000
      8        1          -0.000009579   -0.000032625    0.000014123
      9        1          -0.000009579   -0.000032625   -0.000014123
 -------------------------------------------------------------------
 Cartesian Forces:  Max     0.000163982 RMS     0.000058627
 FormGI is forming the generalized inverse of G from B-inverse, IUseBI=4.

 GradGradGradGradGradGradGradGradGradGradGradGradGradGradGradGradGradGrad
 Berny optimization.
 Internal  Forces:  Max     0.000160281 RMS     0.000040784
 Search for a local minimum.
 Step number   1 out of a maximum of    2
 All quantities printed in internal units (Hartrees-Bohrs-Radians)
 Second derivative matrix not updated -- analytic derivatives used.
 ITU=  0
     Eigenvalues ---    0.00120   0.00146   0.07874   0.07924   0.08127
     Eigenvalues ---    0.08200   0.11922   0.12338   0.13362   0.14499
     Eigenvalues ---    0.16471   0.16568   0.22601   0.29696   0.30962
     Eigenvalues ---    0.31044   0.32271   0.32730   0.33865   0.34961
     Eigenvalues ---    0.40769
 Angle between quadratic step and forces=  27.33 degrees.
 Linear search not attempted -- first point.
 Iteration  1 RMS(Cart)=  0.00033240 RMS(Int)=  0.00000007
 Iteration  2 RMS(Cart)=  0.00000008 RMS(Int)=  0.00000003
 ClnCor:  largest displacement from symmetrization is 6.22D-10 for atom     6.
 Variable       Old X    -DE/DX   Delta X   Delta X   Delta X     New X
                                 (Linear)    (Quad)   (Total)
    R1        2.71263  -0.00002   0.00000  -0.00032  -0.00032   2.71230
    R2        2.71263  -0.00002   0.00000  -0.00032  -0.00032   2.71230
    R3        2.05707   0.00004   0.00000   0.00010   0.00010   2.05716
    R4        2.07856   0.00003   0.00000   0.00015   0.00015   2.07871
    R5        2.07856   0.00003   0.00000   0.00015   0.00015   2.07871
    R6        2.05707   0.00004   0.00000   0.00010   0.00010   2.05716
    R7        2.07856   0.00003   0.00000   0.00015   0.00015   2.07871
    R8        2.07856   0.00003   0.00000   0.00015   0.00015   2.07871
    A1        1.95916   0.00016   0.00000   0.00064   0.00064   1.95980
    A2        1.93016   0.00006   0.00000   0.00040   0.00040   1.93056
    A3        1.94099   0.00001   0.00000   0.00012   0.00012   1.94111
    A4        1.94099   0.00001   0.00000   0.00012   0.00012   1.94111
    A5        1.89731  -0.00002   0.00000  -0.00013  -0.00013   1.89718
    A6        1.89731  -0.00002   0.00000  -0.00013  -0.00013   1.89718
    A7        1.85478  -0.00003   0.00000  -0.00041  -0.00041   1.85437
    A8        1.93016   0.00006   0.00000   0.00040   0.00040   1.93056
    A9        1.94099   0.00001   0.00000   0.00012   0.00012   1.94111
   A10        1.94099   0.00001   0.00000   0.00012   0.00012   1.94111
   A11        1.89731  -0.00002   0.00000  -0.00013  -0.00013   1.89718
   A12        1.89731  -0.00002   0.00000  -0.00013  -0.00013   1.89718
   A13        1.85478  -0.00003   0.00000  -0.00041  -0.00041   1.85437
    D1        3.14159   0.00000   0.00000  -0.00000   0.00000   3.14159
    D2       -1.03174   0.00002   0.00000   0.00018   0.00018  -1.03156
    D3        1.03174  -0.00002   0.00000  -0.00018  -0.00018   1.03156
    D4        3.14159   0.00000   0.00000   0.00000   0.00000   3.14159
    D5        1.03174  -0.00002   0.00000  -0.00018  -0.00018   1.03156
    D6       -1.03174   0.00002   0.00000   0.00018   0.00018  -1.03156
         Item               Value     Threshold  Converged?
 Maximum Force            0.000160     0.000450     YES
 RMS     Force            0.000041     0.000300     YES
 Maximum Displacement     0.000674     0.001800     YES
 RMS     Displacement     0.000332     0.001200     YES
 Predicted change in Energy=-1.205560D-07
 Optimization completed.
    -- Stationary point found.
                           ----------------------------
                           !   Optimized Parameters   !
                           ! (Angstroms and Degrees)  !
 --------------------------                            --------------------------
 ! Name  Definition              Value          Derivative Info.                !
 --------------------------------------------------------------------------------
 ! R1    R(1,2)                  1.4355         -DE/DX =    0.0                 !
 ! R2    R(1,3)                  1.4355         -DE/DX =    0.0                 !
 ! R3    R(2,4)                  1.0886         -DE/DX =    0.0                 !
 ! R4    R(2,5)                  1.0999         -DE/DX =    0.0                 !
 ! R5    R(2,6)                  1.0999         -DE/DX =    0.0                 !
 ! R6    R(3,7)                  1.0886         -DE/DX =    0.0                 !
 ! R7    R(3,8)                  1.0999         -DE/DX =    0.0                 !
 ! R8    R(3,9)                  1.0999         -DE/DX =    0.0                 !
 ! A1    A(2,1,3)              112.2516         -DE/DX =    0.0002              !
 ! A2    A(1,2,4)              110.5902         -DE/DX =    0.0001              !
 ! A3    A(1,2,5)              111.2104         -DE/DX =    0.0                 !
 ! A4    A(1,2,6)              111.2104         -DE/DX =    0.0                 !
 ! A5    A(4,2,5)              108.7081         -DE/DX =    0.0                 !
 ! A6    A(4,2,6)              108.7081         -DE/DX =    0.0                 !
 ! A7    A(5,2,6)              106.2713         -DE/DX =    0.0                 !
 ! A8    A(1,3,7)              110.5902         -DE/DX =    0.0001              !
 ! A9    A(1,3,8)              111.2104         -DE/DX =    0.0                 !
 ! A10   A(1,3,9)              111.2104         -DE/DX =    0.0                 !
 ! A11   A(7,3,8)              108.7081         -DE/DX =    0.0                 !
 ! A12   A(7,3,9)              108.7081         -DE/DX =    0.0                 !
 ! A13   A(8,3,9)              106.2713         -DE/DX =    0.0                 !
 ! D1    D(3,1,2,4)            180.0            -DE/DX =    0.0                 !
 ! D2    D(3,1,2,5)            -59.1144         -DE/DX =    0.0                 !
 ! D3    D(3,1,2,6)             59.1144         -DE/DX =    0.0                 !
 ! D4    D(2,1,3,7)            180.0            -DE/DX =    0.0                 !
 ! D5    D(2,1,3,8)             59.1144         -DE/DX =    0.0                 !
 ! D6    D(2,1,3,9)            -59.1144         -DE/DX =    0.0                 !
 --------------------------------------------------------------------------------
 GradGradGradGradGradGradGradGradGradGradGradGradGradGradGradGradGradGrad


 ----------------------------------------------------------------------

 Electric dipole moment (input orientation):
 (Debye = 10**-18 statcoulomb cm , SI units = C m)
                  (au)            (Debye)         (10**-30 SI)
   Tot        0.695862D+00      0.176870D+01      0.589976D+01
   x          0.000000D+00      0.000000D+00      0.000000D+00
   y         -0.695862D+00     -0.176870D+01     -0.589976D+01
   z          0.000000D+00      0.000000D+00      0.000000D+00

 Dipole polarizability, Alpha (input orientation).
 (esu units = cm**3 , SI units = C**2 m**2 J**-1)
 Alpha(0;0):
               (au)            (10**-24 esu)      (10**-40 SI)
   iso        0.353844D+02      0.524343D+01      0.583410D+01
   aniso      0.964793D+01      0.142968D+01      0.159073D+01
   xx         0.416330D+02      0.616938D+01      0.686436D+01
   yx         0.000000D+00      0.000000D+00      0.000000D+00
   yy         0.335805D+02      0.497612D+01      0.553668D+01
   zx         0.000000D+00      0.000000D+00      0.000000D+00
   zy         0.000000D+00      0.000000D+00      0.000000D+00
   zz         0.309396D+02      0.458478D+01      0.510126D+01

 ----------------------------------------------------------------------

 Dipole orientation:
     7          0.00000000         -0.00000000         -1.08469295
     6          2.25219512          0.00000000          0.42724862
     6         -2.25219512         -0.00000000          0.42724862
     1          3.92614414          0.00000000         -0.76833819
     1          2.32214450          1.66296603          1.67225901
     1          2.32214450         -1.66296603          1.67225901
     1         -3.92614414         -0.00000000         -0.76833819
     1         -2.32214450          1.66296603          1.67225901
     1         -2.32214450         -1.66296603          1.67225901

 Electric dipole moment (dipole orientation):
 (Debye = 10**-18 statcoulomb cm , SI units = C m)
                  (au)            (Debye)         (10**-30 SI)
   Tot        0.695862D+00      0.176870D+01      0.589976D+01
   x          0.000000D+00      0.000000D+00      0.000000D+00
   y          0.000000D+00      0.000000D+00      0.000000D+00
   z          0.695862D+00      0.176870D+01      0.589976D+01

 Dipole polarizability, Alpha (dipole orientation).
 (esu units = cm**3 , SI units = C**2 m**2 J**-1)
 Alpha(0;0):
               (au)            (10**-24 esu)      (10**-40 SI)
   iso        0.353844D+02      0.524343D+01      0.583410D+01
   aniso      0.964793D+01      0.142968D+01      0.159073D+01
   xx         0.416330D+02      0.616938D+01      0.686436D+01
   yx         0.000000D+00      0.000000D+00      0.000000D+00
   yy         0.309396D+02      0.458478D+01      0.510126D+01
   zx         0.000000D+00      0.000000D+00      0.000000D+00
   zy         0.000000D+00      0.000000D+00      0.000000D+00
   zz         0.335805D+02      0.497612D+01      0.553668D+01

 ----------------------------------------------------------------------
 1\1\GINC-GAMBA\Freq\UB3LYP\Gen\C2H6N1(2)\IRIKURA\16-Jun-2022\0\\#N Geo
 m=AllCheck Guess=TCheck SCRF=Check GenChk UB3LYP/ChkBas Freq\\dimethyl
 aminyl, B3LYP/pcseg-2\\0,2\N,0.,0.5739947901,0.\C,1.1918103318,-0.2260
 902355,0.\C,-1.1918103318,-0.2260902355,0.\H,2.0776260044,0.406587063,
 0.\H,1.2288259478,-0.8849213612,0.8800037254\H,1.2288259478,-0.8849213
 612,-0.8800037254\H,-2.0776260044,0.406587063,0.\H,-1.2288259478,-0.88
 49213612,0.8800037254\H,-1.2288259478,-0.8849213612,-0.8800037254\\Ver
 sion=ES64L-G16RevB.01\State=2-B1\HF=-134.5670822\S2=0.754197\S2-1=0.\S
 2A=0.750014\RMSD=1.280e-09\RMSF=5.863e-05\ZeroPoint=0.0767778\Thermal=
 0.0815541\Dipole=0.,-0.6958617,0.\DipoleDeriv=-0.2164262,0.,0.,0.,-0.2
 970848,0.,0.,0.,-0.4041735,0.2281498,0.0165658,0.,0.1250498,0.1569169,
 0.,0.,0.,0.2935544,0.2281498,-0.0165658,0.,-0.1250498,0.1569169,0.,0.,
 0.,0.2935543,-0.1194907,-0.0539627,0.,-0.1010035,-0.0023094,0.,0.,0.,0
 .0628293,-0.000223,-0.0167073,0.0533549,0.0337863,-0.0030326,0.0930816
 ,-0.0263635,0.123265,-0.0771485,-0.000223,-0.0167073,-0.0533549,0.0337
 863,-0.0030325,-0.0930816,0.0263635,-0.123265,-0.0771485,-0.1194907,0.
 0539627,0.,0.1010035,-0.0023094,0.,0.,0.,0.0628293,-0.000223,0.0167073
 ,-0.0533548,-0.0337863,-0.0030325,0.0930816,0.0263635,0.123265,-0.0771
 485,-0.000223,0.0167073,0.0533548,-0.0337863,-0.0030326,-0.0930816,-0.
 0263635,-0.1232651,-0.0771485\Polar=41.6330126,0.,33.5805254,0.,0.,30.
 9396357\Quadrupole=1.5584402,-1.7769804,0.2185401,0.,0.,0.\PG=C02V [C2
 (N1),SGV(C2H2),X(H4)]\NImag=0\\0.43897497,0.,0.28014890,0.,0.,0.036528
 15,-0.17676469,0.03776161,0.,0.53064060,0.07199686,-0.11542100,0.,0.08
 313668,0.49633714,0.,0.,-0.01636130,0.,0.,0.47549819,-0.17676469,-0.03
 776161,0.,-0.04638075,-0.02146920,0.,0.53064060,-0.07199686,-0.1154210
 0,0.,0.02146920,0.00909672,0.,-0.08313668,0.49633714,0.00000001,0.,-0.
 01636131,0.,0.,-0.02111346,0.,0.,0.47549819,-0.03018739,-0.01197806,0.
 ,-0.20990854,-0.12541454,0.,-0.00341078,0.00447251,0.,0.24117473,0.020
 86871,0.01419941,0.,-0.13285401,-0.14853535,0.,0.00375129,-0.00054079,
 0.,0.13387505,0.15568882,0.,0.,-0.00349621,0.,0.,-0.04884213,0.,0.,0.0
 0339076,0.,0.,0.04747228,-0.00626770,0.02050172,-0.01664632,-0.0493592
 7,-0.00064322,-0.00559377,0.00227135,0.00124543,-0.00398687,0.00170472
 ,-0.01358575,0.02082423,0.05071025,0.01446813,-0.01942643,0.00642355,-
 0.00540943,-0.12031063,0.11951850,-0.00252835,-0.00015773,0.00370832,-
 0.00001969,-0.01073865,0.01596691,-0.00527098,0.13748481,-0.00544131,0
 .00393773,0.00079672,0.00054635,0.11244315,-0.19704823,0.00084824,-0.0
 0067004,0.00076219,0.00069677,-0.00091901,0.00021451,0.00424747,-0.129
 20369,0.21695170,-0.00626770,0.02050172,0.01664632,-0.04935927,-0.0006
 4322,0.00559377,0.00227135,0.00124543,0.00398687,0.00170472,-0.0135857
 5,-0.02082423,0.00152485,-0.00158971,0.00024127,0.05071025,0.01446813,
 -0.01942643,-0.00642355,-0.00540944,-0.12031063,-0.11951850,-0.0025283
 5,-0.00015773,-0.00370832,-0.00001969,-0.01073865,-0.01596691,-0.00158
 971,0.01165312,0.01505575,-0.00527098,0.13748481,0.00544131,-0.0039377
 3,0.00079671,-0.00054635,-0.11244315,-0.19704823,-0.00084823,0.0006700
 4,0.00076219,-0.00069677,0.00091901,0.00021451,-0.00024127,-0.01505575
 ,-0.02225380,-0.00424747,0.12920369,0.21695170,-0.03018739,0.01197806,
 0.,-0.00341078,-0.00447251,0.,-0.20990854,0.12541454,0.,-0.00133648,0.
 00088151,0.,0.00012950,0.00001703,-0.00019691,0.00012950,0.00001703,0.
 00019691,0.24117473,-0.02086871,0.01419941,0.,-0.00375129,-0.00054079,
 0.,0.13285401,-0.14853535,0.,-0.00088151,0.00055485,0.,-0.00032447,0.0
 0005518,-0.00023554,-0.00032447,0.00005518,0.00023554,-0.13387505,0.15
 568882,0.,0.,-0.00349621,0.,0.,0.00339076,0.,0.,-0.04884213,0.,0.,0.00
 048166,0.00080048,-0.00069384,0.00028231,-0.00080048,0.00069384,0.0002
 8231,0.,0.,0.04747228,-0.00626770,-0.02050172,0.01664632,0.00227135,-0
 .00124543,0.00398687,-0.04935927,0.00064322,0.00559377,0.00012950,0.00
 032447,-0.00080048,-0.00002431,-0.00016011,-0.00076897,-0.00068939,0.0
 0049312,0.00017291,0.00170472,0.01358575,-0.02082423,0.05071025,-0.014
 46813,-0.01942643,0.00642354,0.00252835,-0.00015773,0.00370832,0.00540
 944,-0.12031063,0.11951850,-0.00001703,0.00005518,-0.00069384,0.000160
 11,0.00045885,-0.00053616,-0.00049312,0.00098148,-0.00012782,0.0000196
 9,-0.01073865,0.01596691,0.00527098,0.13748481,0.00544130,0.00393773,0
 .00079672,-0.00084823,-0.00067004,0.00076219,-0.00054635,0.11244315,-0
 .19704823,0.00019691,-0.00023554,0.00028231,0.00076897,-0.00053616,0.0
 0035710,0.00017291,0.00012782,-0.00006251,-0.00069677,-0.00091901,0.00
 021451,-0.00424747,-0.12920369,0.21695170,-0.00626771,-0.02050172,-0.0
 1664632,0.00227135,-0.00124543,-0.00398687,-0.04935927,0.00064322,-0.0
 0559377,0.00012950,0.00032447,0.00080048,-0.00068939,0.00049312,-0.000
 17291,-0.00002431,-0.00016011,0.00076897,0.00170472,0.01358575,0.02082
 423,0.00152485,0.00158971,-0.00024127,0.05071025,-0.01446813,-0.019426
 43,-0.00642354,0.00252835,-0.00015773,-0.00370832,0.00540943,-0.120310
 63,-0.11951850,-0.00001703,0.00005518,0.00069384,-0.00049312,0.0009814
 8,0.00012782,0.00016011,0.00045885,0.00053616,0.00001969,-0.01073865,-
 0.01596691,0.00158971,0.01165312,0.01505575,0.00527098,0.13748481,-0.0
 0544131,-0.00393773,0.00079672,0.00084824,0.00067004,0.00076219,0.0005
 4635,-0.11244315,-0.19704823,-0.00019691,0.00023554,0.00028231,-0.0001
 7291,-0.00012782,-0.00006251,-0.00076897,0.00053616,0.00035710,0.00069
 677,0.00091901,0.00021451,0.00024127,-0.01505575,-0.02225380,0.0042474
 7,0.12920369,0.21695170\\0.,0.00016398,0.,0.00004560,-0.00015921,0.,-0
 .00004560,-0.00015921,0.,-0.00005170,0.00001197,0.,-0.00000958,0.00003
 262,-0.00001412,-0.00000958,0.00003262,0.00001412,0.00005170,0.0000119
 7,0.,0.00000958,0.00003262,-0.00001412,0.00000958,0.00003262,0.0000141
 2\\\@


 YOU CAN WIPE THE SLATE CLEAN, BUT YOU'LL STILL
 HAVE TO EAT A LITTLE CHALK DUST.
 Job cpu time:       0 days  0 hours  9 minutes 22.8 seconds.
 Elapsed time:       0 days  0 hours  0 minutes 47.0 seconds.
 File lengths (MBytes):  RWF=     32 Int=      0 D2E=      0 Chk=      5 Scr=      1
 Normal termination of Gaussian 16 at Thu Jun 16 10:44:12 2022.
