 Entering Gaussian System, Link 0=g16
 AtFile(1): pcseg2.gbs
            -H     0
            S   4   1.00
                  0.754732D+02           0.427821D-02
                  0.113575D+02           0.328672D-01
                  0.260081D+01           0.159578D+00
                  0.735503D+00           0.500000D+00
            S   1   1.00
                  0.231761D+00           1.0000000
            S   1   1.00
                  0.741675D-01           1.0000000
            P   1   1.00
                  0.160000D+01           1.0000000
            P   1   1.00
                  0.450000D+00           1.0000000
            D   1   1.00
                  0.125000D+01           1.0000000
            ****
            -C     0
            S   7   1.00
                  0.731999D+04           0.695369D-03
                  0.109818D+04           0.537138D-02
                  0.250014D+03           0.274734D-01
                  0.707586D+02           0.105078D+00
                  0.228595D+02           0.291262D+00
                  0.803936D+01           0.500000D+00
                  0.289309D+01           0.362224D+00
            S   2   1.00
                  0.521640D+01          -0.957844D-01
                  0.556124D+00           0.500000D+00
            S   1   1.00
                  0.228813D+00           1.0000000
            S   1   1.00
                  0.936338D-01           1.0000000
            P   4   1.00
                  0.339855D+02           0.818395D-02
                  0.772957D+01           0.586921D-01
                  0.224954D+01           0.222514D+00
                  0.767681D+00           0.500000D+00
            P   1   1.00
                  0.263283D+00           1.0000000
            P   1   1.00
                  0.848744D-01           1.0000000
            D   1   1.00
                  0.140000D+01           1.0000000
            D   1   1.00
                  0.450000D+00           1.0000000
            F   1   1.00
                  0.950000D+00           1.0000000
            ****
            -O     0
            S   7   1.00
                  0.135887D+05           0.665492D-03
                  0.203847D+04           0.514222D-02
                  0.464041D+03           0.263472D-01
                  0.131339D+03           0.101500D+00
                  0.425340D+02           0.285877D+00
                  0.150429D+02           0.500000D+00
                  0.546616D+01           0.368211D+00
            S   2   1.00
                  0.100915D+02          -0.100084D+00
                  0.110429D+01           0.500000D+00
            S   1   1.00
                  0.448082D+00           1.0000000
            S   1   1.00
                  0.175325D+00           1.0000000
            P   4   1.00
                  0.608220D+02           0.908253D-02
                  0.140332D+02           0.645878D-01
                  0.418244D+01           0.241502D+00
                  0.142490D+01           0.500000D+00
            P   1   1.00
                  0.478741D+00           1.0000000
            P   1   1.00
                  0.146257D+00           1.0000000
            D   1   1.00
                  0.220000D+01           1.0000000
            D   1   1.00
                  0.650000D+00           1.0000000
            F   1   1.00
                  0.110000D+01           1.0000000
            ****
            -N     0
            S   7   1.00
                  0.101643D+05           0.682757D-03
                  0.152481D+04           0.527488D-02
                  0.347119D+03           0.270037D-01
                  0.982389D+02           0.103673D+00
                  0.317799D+02           0.289575D+00
                  0.112240D+02           0.500000D+00
                  0.406611D+01           0.364621D+00
            S   2   1.00
                  0.747898D+01          -0.975681D-01
                  0.805040D+00           0.500000D+00
            S   1   1.00
                  0.324626D+00           1.0000000
            S   1   1.00
                  0.128132D+00           1.0000000
            P   4   1.00
                  0.482704D+02           0.829547D-02
                  0.110815D+02           0.596223D-01
                  0.326643D+01           0.227889D+00
                  0.111680D+01           0.500000D+00
            P   1   1.00
                  0.382049D+00           1.0000000
            P   1   1.00
                  0.121222D+00           1.0000000
            D   1   1.00
                  0.180000D+01           1.0000000
            D   1   1.00
                  0.550000D+00           1.0000000
            F   1   1.00
                  0.102000D+01           1.0000000
            ****
            -F     0
            S   7   1.00
                  0.174507D+05           0.655972D-03
                  0.261768D+04           0.506944D-02
                  0.595857D+03           0.259899D-01
                  0.168651D+03           0.100353D+00
                  0.546654D+02           0.284095D+00
                  0.193717D+02           0.500000D+00
                  0.706202D+01           0.370721D+00
            S   2   1.00
                  0.131197D+02          -0.101997D+00
                  0.145046D+01           0.500000D+00
            S   1   1.00
                  0.588255D+00           1.0000000
            S   1   1.00
                  0.227960D+00           1.0000000
            P   4   1.00
                  0.779407D+02           0.931135D-02
                  0.180425D+02           0.663964D-01
                  0.542342D+01           0.246386D+00
                  0.184876D+01           0.500000D+00
            P   1   1.00
                  0.617455D+00           1.0000000
            P   1   1.00
                  0.185496D+00           1.0000000
            D   1   1.00
                  0.280000D+01           1.0000000
            D   1   1.00
                  0.800000D+00           1.0000000
            F   1   1.00
                  0.120000D+01           1.0000000
            ****
            -Cl     0
            S   8   1.00
                  0.154272D+06           0.222473D-03
                  0.231232D+05           0.172590D-02
                  0.526257D+04           0.899286D-02
                  0.148995D+04           0.367724D-01
                  0.485417D+03           0.121446D+00
                  0.174634D+03           0.304148D+00
                  0.672393D+02           0.500000D+00
                  0.265780D+02           0.360252D+00
            S   3   1.00
                  0.131826D+03          -0.531330D-01
                  0.400703D+02          -0.233346D+00
                  0.789448D+01           0.500000D+00
            S   2   1.00
                  0.427711D+01           0.500000D+00
                  0.196233D+01           0.370517D+00
            S   1   1.00
                  0.520793D+00           1.0000000
            S   1   1.00
                  0.181633D+00           1.0000000
            P   7   1.00
                  0.124440D+04           0.988206D-03
                  0.295109D+03           0.829674D-02
                  0.947224D+02           0.430906D-01
                  0.352588D+02           0.148443D+00
                  0.144211D+02           0.344744D+00
                  0.610371D+01           0.500000D+00
                  0.258886D+01           0.348278D+00
            P   2   1.00
                  0.109447D+02          -0.196768D-01
                  0.104413D+01           0.500000D+00
            P   1   1.00
                  0.376184D+00           1.0000000
            P   1   1.00
                  0.120613D+00           1.0000000
            D   1   1.00
                  0.231000D+01           1.0000000
            D   1   1.00
                  0.520000D+00           1.0000000
            F   1   1.00
                  0.720000D+00           1.0000000
            ****
            -S     0
            S   8   1.00
                  0.134700D+06           0.226231D-03
                  0.201904D+05           0.175488D-02
                  0.459528D+04           0.914190D-02
                  0.130109D+04           0.373551D-01
                  0.423902D+03           0.123121D+00
                  0.152485D+03           0.306801D+00
                  0.586925D+02           0.500000D+00
                  0.231461D+02           0.354358D+00
            S   3   1.00
                  0.116327D+03          -0.491772D-01
                  0.352841D+02          -0.215962D+00
                  0.677831D+01           0.500000D+00
            S   2   1.00
                  0.360404D+01           0.500000D+00
                  0.164871D+01           0.366278D+00
            S   1   1.00
                  0.421821D+00           1.0000000
            S   1   1.00
                  0.147554D+00           1.0000000
            P   7   1.00
                  0.104863D+04           0.105273D-02
                  0.248717D+03           0.879338D-02
                  0.797887D+02           0.453358D-01
                  0.296023D+02           0.154476D+00
                  0.120627D+02           0.352366D+00
                  0.507628D+01           0.500000D+00
                  0.213375D+01           0.346429D+00
            P   2   1.00
                  0.928958D+01          -0.185932D-01
                  0.837819D+00           0.500000D+00
            P   1   1.00
                  0.301495D+00           1.0000000
            P   1   1.00
                  0.974740D-01           1.0000000
            D   1   1.00
                  0.210000D+01           1.0000000
            D   1   1.00
                  0.480000D+00           1.0000000
            F   1   1.00
                  0.660000D+00           1.0000000
            ****
            -Br     0
            S    10   1.00
                  0.233625D+07           0.532336D-04
                  0.349961D+06           0.413715D-03
                  0.796444D+05           0.217123D-02
                  0.225555D+05           0.910109D-02
                  0.735546D+04           0.323789D-01
                  0.265352D+04           0.988755D-01
                  0.103517D+04           0.248138D+00
                  0.422205D+03           0.474328D+00
                  0.180035D+03           0.500000D+00
                  0.793308D+02           0.187769D+00
            S    4   1.00
                  0.620834D+03          -0.226511D-01
                  0.190829D+03          -0.109497D+00
                  0.312505D+02           0.500000D+00
                  0.135270D+02           0.492812D+00
            S    2   1.00
                  0.216097D+02          -0.165418D+00
                  0.372566D+01           0.500000D+00
            S    1   1.00
                  0.169770D+01           1.0000000
            S    1   1.00
                  0.489332D+00           1.0000000
            S    1   1.00
                  0.175712D+00           1.0000000
            P    8   1.00
                  0.960829D+04           0.478974D-03
                  0.227618D+04           0.417853D-02
                  0.736723D+03           0.229315D-01
                  0.281579D+03           0.892653D-01
                  0.118395D+03           0.255288D+00
                  0.527481D+02           0.479074D+00
                  0.245098D+02           0.500000D+00
                  0.112009D+02           0.200944D+00
            P    4   1.00
                  0.587849D+02          -0.189674D-01
                  0.918962D+01           0.264104D+00
                  0.413895D+01           0.500000D+00
                  0.184225D+01           0.319316D+00
            P    1   1.00
                  0.713862D+00           1.0000000
            P    1   1.00
                  0.274232D+00           1.0000000
            P    1   1.00
                  0.944411D-01           1.0000000
            D    7   1.00
                  0.398470D+03           0.204066D-02
                  0.118967D+03           0.175171D-01
                  0.450197D+02           0.829708D-01
                  0.190320D+02           0.236284D+00
                  0.855686D+01           0.428468D+00
                  0.382950D+01           0.500000D+00
                  0.166291D+01           0.349360D+00
            D    1   1.00
                  0.672953D+00           1.0000000
            D    1   1.00
                  0.252000D+00           1.0000000
            F    1   1.00
                  0.530000D+00           1.0000000
            ****
            -Si     0
            S    8   1.00
                  0.996133D+05           0.235546D-03
                  0.149311D+05           0.182707D-02
                  0.339820D+04           0.951425D-02
                  0.962140D+03           0.388172D-01
                  0.313430D+03           0.127328D+00
                  0.112683D+03           0.313522D+00
                  0.433372D+02           0.500000D+00
                  0.170029D+02           0.340347D+00
            S    3   1.00
                  0.884208D+02          -0.404451D-01
                  0.266756D+02          -0.178059D+00
                  0.479640D+01           0.500000D+00
            S    2   1.00
                  0.239385D+01           0.500000D+00
                  0.108333D+01           0.338016D+00
            S    1   1.00
                  0.252420D+00           1.0000000
            S    1   1.00
                  0.891210D-01           1.0000000
            P    7   1.00
                  0.709901D+03           0.123028D-02
                  0.168426D+03           0.101366D-01
                  0.539946D+02           0.511840D-01
                  0.198646D+02           0.169967D+00
                  0.801369D+01           0.370717D+00
                  0.331870D+01           0.500000D+00
                  0.136112D+01           0.344128D+00
            P    2   1.00
                  0.622158D+01          -0.166609D-01
                  0.503049D+00           0.500000D+00
            P    1   1.00
                  0.179848D+00           1.0000000
            P    1   1.00
                  0.591912D-01           1.0000000
            D    1   1.00
                  0.168000D+01           1.0000000
            D    1   1.00
                  0.380000D+00           1.0000000
            F    1   1.00
                  0.540000D+00           1.0000000
            ****
            -P     0
            S    8   1.00
                  0.116416D+06           0.230715D-03
                  0.174500D+05           0.178960D-02
                  0.397149D+04           0.932116D-02
                  0.112447D+04           0.380591D-01
                  0.366347D+03           0.125148D+00
                  0.131757D+03           0.310022D+00
                  0.506988D+02           0.500000D+00
                  0.199436D+02           0.347528D+00
            S    3   1.00
                  0.101878D+03          -0.446755D-01
                  0.308249D+02          -0.196376D+00
                  0.573688D+01           0.500000D+00
            S    2   1.00
                  0.296868D+01           0.500000D+00
                  0.135315D+01           0.355098D+00
            S    1   1.00
                  0.332196D+00           1.0000000
            S    1   1.00
                  0.116229D+00           1.0000000
            P    7   1.00
                  0.873928D+03           0.112375D-02
                  0.207298D+03           0.933330D-02
                  0.664628D+02           0.477213D-01
                  0.245665D+02           0.160733D+00
                  0.996820D+01           0.359760D+00
                  0.416536D+01           0.500000D+00
                  0.173022D+01           0.346593D+00
            P    2   1.00
                  0.772530D+01          -0.175718D-01
                  0.657252D+00           0.500000D+00
            P    1   1.00
                  0.239903D+00           1.0000000
            P    1   1.00
                  0.800988D-01           1.0000000
            D    1   1.00
                  0.189000D+01           1.0000000
            D    1   1.00
                  0.430000D+00           1.0000000
            F    1   1.00
                  0.600000D+00           1.0000000
            ****
            
 Initial command:
 /usr/local/apps/g16_b01_avx/g16/l1.exe "/wrk/irikura/Gau-7155.inp" -scrdir="/wrk/irikura/"
 Entering Link 1 = /usr/local/apps/g16_b01_avx/g16/l1.exe PID=      7157.
  
 Copyright (c) 1988-2017, Gaussian, Inc.  All Rights Reserved.
  
 This is part of the Gaussian(R) 16 program.  It is based on
 the Gaussian(R) 09 system (copyright 2009, Gaussian, Inc.),
 the Gaussian(R) 03 system (copyright 2003, Gaussian, Inc.),
 the Gaussian(R) 98 system (copyright 1998, Gaussian, Inc.),
 the Gaussian(R) 94 system (copyright 1995, Gaussian, Inc.),
 the Gaussian 92(TM) system (copyright 1992, Gaussian, Inc.),
 the Gaussian 90(TM) system (copyright 1990, Gaussian, Inc.),
 the Gaussian 88(TM) system (copyright 1988, Gaussian, Inc.),
 the Gaussian 86(TM) system (copyright 1986, Carnegie Mellon
 University), and the Gaussian 82(TM) system (copyright 1983,
 Carnegie Mellon University). Gaussian is a federally registered
 trademark of Gaussian, Inc.
  
 This software contains proprietary and confidential information,
 including trade secrets, belonging to Gaussian, Inc.
  
 This software is provided under written license and may be
 used, copied, transmitted, or stored only in accord with that
 written license.
  
 The following legend is applicable only to US Government
 contracts under FAR:
  
                    RESTRICTED RIGHTS LEGEND
  
 Use, reproduction and disclosure by the US Government is
 subject to restrictions as set forth in subparagraphs (a)
 and (c) of the Commercial Computer Software - Restricted
 Rights clause in FAR 52.227-19.
  
 Gaussian, Inc.
 340 Quinnipiac St., Bldg. 40, Wallingford CT 06492
  
  
 ---------------------------------------------------------------
 Warning -- This program may not be used in any manner that
 competes with the business of Gaussian, Inc. or will provide
 assistance to any competitor of Gaussian, Inc.  The licensee
 of this program is prohibited from giving any competitor of
 Gaussian, Inc. access to this program.  By using this program,
 the user acknowledges that Gaussian, Inc. is engaged in the
 business of creating and licensing software in the field of
 computational chemistry and represents and warrants to the
 licensee that it is not a competitor of Gaussian, Inc. and that
 it will not use this program in any manner prohibited above.
 ---------------------------------------------------------------
  

 Cite this work as:
 Gaussian 16, Revision B.01,
 M. J. Frisch, G. W. Trucks, H. B. Schlegel, G. E. Scuseria, 
 M. A. Robb, J. R. Cheeseman, G. Scalmani, V. Barone, 
 G. A. Petersson, H. Nakatsuji, X. Li, M. Caricato, A. V. Marenich, 
 J. Bloino, B. G. Janesko, R. Gomperts, B. Mennucci, H. P. Hratchian, 
 J. V. Ortiz, A. F. Izmaylov, J. L. Sonnenberg, D. Williams-Young, 
 F. Ding, F. Lipparini, F. Egidi, J. Goings, B. Peng, A. Petrone, 
 T. Henderson, D. Ranasinghe, V. G. Zakrzewski, J. Gao, N. Rega, 
 G. Zheng, W. Liang, M. Hada, M. Ehara, K. Toyota, R. Fukuda, 
 J. Hasegawa, M. Ishida, T. Nakajima, Y. Honda, O. Kitao, H. Nakai, 
 T. Vreven, K. Throssell, J. A. Montgomery, Jr., J. E. Peralta, 
 F. Ogliaro, M. J. Bearpark, J. J. Heyd, E. N. Brothers, K. N. Kudin, 
 V. N. Staroverov, T. A. Keith, R. Kobayashi, J. Normand, 
 K. Raghavachari, A. P. Rendell, J. C. Burant, S. S. Iyengar, 
 J. Tomasi, M. Cossi, J. M. Millam, M. Klene, C. Adamo, R. Cammi, 
 J. W. Ochterski, R. L. Martin, K. Morokuma, O. Farkas, 
 J. B. Foresman, and D. J. Fox, Gaussian, Inc., Wallingford CT, 2016.
 
 ******************************************
 Gaussian 16:  ES64L-G16RevB.01 20-Dec-2017
                16-Jun-2022 
 ******************************************
 %mem=1000mw
 %nprocs=12
 Will use up to   12 processors via shared memory.
 --------------------
 # b3lyp/gen opt freq
 --------------------
 1/18=20,19=15,26=3,38=1/1,3;
 2/9=110,12=2,17=6,18=5,40=1/2;
 3/5=7,11=2,25=1,30=1,71=1,74=-5/1,2,3;
 4//1;
 5/5=2,38=5/2;
 6/7=2,8=2,9=2,10=2,28=1/1;
 7//1,2,3,16;
 1/18=20,19=15,26=3/3(2);
 2/9=110/2;
 99//99;
 2/9=110/2;
 3/5=7,6=1,11=2,25=1,30=1,71=1,74=-5,82=7/1,2,3;
 4/5=5,16=3,69=1/1;
 5/5=2,38=5/2;
 7//1,2,3,16;
 1/18=20,19=15,26=3/3(-5);
 2/9=110/2;
 6/7=2,8=2,9=2,10=2,19=2,28=1/1;
 99/9=1/99;
 -----------------------------------
 dimethylamino methyl, B3LYP/pcseg-2
 -----------------------------------
 Symbolic Z-matrix:
 Charge =  0 Multiplicity = 2
 N                     0.        0.05802  -0.20545 
 C                     0.        1.4109    0.09771 
 C                     1.22049  -0.68084   0.05024 
 C                    -1.22049  -0.68084   0.05024 
 H                    -0.93023   1.93912  -0.08007 
 H                     0.93023   1.93912  -0.08007 
 H                     1.37048  -0.897     1.12167 
 H                     2.08075  -0.10567  -0.3051 
 H                     1.19501  -1.63246  -0.48913 
 H                    -1.37048  -0.897     1.12167 
 H                    -2.08075  -0.10567  -0.3051 
 H                    -1.19501  -1.63246  -0.48913 
 

 GradGradGradGradGradGradGradGradGradGradGradGradGradGradGradGradGradGrad
 Berny optimization.
 Initialization pass.
                           ----------------------------
                           !    Initial Parameters    !
                           ! (Angstroms and Degrees)  !
 --------------------------                            --------------------------
 ! Name  Definition              Value          Derivative Info.                !
 --------------------------------------------------------------------------------
 ! R1    R(1,2)                  1.3864         estimate D2E/DX2                !
 ! R2    R(1,3)                  1.4494         estimate D2E/DX2                !
 ! R3    R(1,4)                  1.4494         estimate D2E/DX2                !
 ! R4    R(2,5)                  1.0844         estimate D2E/DX2                !
 ! R5    R(2,6)                  1.0844         estimate D2E/DX2                !
 ! R6    R(3,7)                  1.1033         estimate D2E/DX2                !
 ! R7    R(3,8)                  1.0941         estimate D2E/DX2                !
 ! R8    R(3,9)                  1.0941         estimate D2E/DX2                !
 ! R9    R(4,10)                 1.1033         estimate D2E/DX2                !
 ! R10   R(4,11)                 1.0941         estimate D2E/DX2                !
 ! R11   R(4,12)                 1.0941         estimate D2E/DX2                !
 ! A1    A(2,1,3)              117.3127         estimate D2E/DX2                !
 ! A2    A(2,1,4)              117.3127         estimate D2E/DX2                !
 ! A3    A(3,1,4)              114.7126         estimate D2E/DX2                !
 ! A4    A(1,2,5)              116.0703         estimate D2E/DX2                !
 ! A5    A(1,2,6)              116.0703         estimate D2E/DX2                !
 ! A6    A(5,2,6)              118.1444         estimate D2E/DX2                !
 ! A7    A(1,3,7)              112.6846         estimate D2E/DX2                !
 ! A8    A(1,3,8)              109.6812         estimate D2E/DX2                !
 ! A9    A(1,3,9)              109.6812         estimate D2E/DX2                !
 ! A10   A(7,3,8)              108.1498         estimate D2E/DX2                !
 ! A11   A(7,3,9)              108.1497         estimate D2E/DX2                !
 ! A12   A(8,3,9)              108.3866         estimate D2E/DX2                !
 ! A13   A(1,4,10)             112.6846         estimate D2E/DX2                !
 ! A14   A(1,4,11)             109.6812         estimate D2E/DX2                !
 ! A15   A(1,4,12)             109.6812         estimate D2E/DX2                !
 ! A16   A(10,4,11)            108.1498         estimate D2E/DX2                !
 ! A17   A(10,4,12)            108.1497         estimate D2E/DX2                !
 ! A18   A(11,4,12)            108.3866         estimate D2E/DX2                !
 ! D1    D(3,1,2,5)           -178.6446         estimate D2E/DX2                !
 ! D2    D(3,1,2,6)             35.8711         estimate D2E/DX2                !
 ! D3    D(4,1,2,5)            -35.8711         estimate D2E/DX2                !
 ! D4    D(4,1,2,6)            178.6446         estimate D2E/DX2                !
 ! D5    D(2,1,3,7)             76.0139         estimate D2E/DX2                !
 ! D6    D(2,1,3,8)            -44.5219         estimate D2E/DX2                !
 ! D7    D(2,1,3,9)           -163.4505         estimate D2E/DX2                !
 ! D8    D(4,1,3,7)            -67.7074         estimate D2E/DX2                !
 ! D9    D(4,1,3,8)            171.7568         estimate D2E/DX2                !
 ! D10   D(4,1,3,9)             52.8283         estimate D2E/DX2                !
 ! D11   D(2,1,4,10)           -76.0139         estimate D2E/DX2                !
 ! D12   D(2,1,4,11)            44.5219         estimate D2E/DX2                !
 ! D13   D(2,1,4,12)           163.4505         estimate D2E/DX2                !
 ! D14   D(3,1,4,10)            67.7074         estimate D2E/DX2                !
 ! D15   D(3,1,4,11)          -171.7568         estimate D2E/DX2                !
 ! D16   D(3,1,4,12)           -52.8283         estimate D2E/DX2                !
 --------------------------------------------------------------------------------
 Trust Radius=3.00D-01 FncErr=1.00D-07 GrdErr=1.00D-06 EigMax=2.50D+02 EigMin=1.00D-04
 Number of steps in this run=     55 maximum allowed number of steps=    100.
 GradGradGradGradGradGradGradGradGradGradGradGradGradGradGradGradGradGrad

                          Input orientation:                          
 ---------------------------------------------------------------------
 Center     Atomic      Atomic             Coordinates (Angstroms)
 Number     Number       Type             X           Y           Z
 ---------------------------------------------------------------------
      1          7           0        0.000000    0.058018   -0.205445
      2          6           0        0.000000    1.410895    0.097712
      3          6           0        1.220494   -0.680844    0.050238
      4          6           0       -1.220494   -0.680844    0.050238
      5          1           0       -0.930228    1.939123   -0.080070
      6          1           0        0.930228    1.939123   -0.080070
      7          1           0        1.370481   -0.896995    1.121665
      8          1           0        2.080751   -0.105668   -0.305103
      9          1           0        1.195013   -1.632462   -0.489126
     10          1           0       -1.370481   -0.896995    1.121665
     11          1           0       -2.080751   -0.105668   -0.305103
     12          1           0       -1.195013   -1.632462   -0.489126
 ---------------------------------------------------------------------
                    Distance matrix (angstroms):
                    1          2          3          4          5
     1  N    0.000000
     2  C    1.386427   0.000000
     3  C    1.449447   2.422237   0.000000
     4  C    1.449447   2.422237   2.440988   0.000000
     5  H    2.102284   1.084415   3.392169   2.639216   0.000000
     6  H    2.102284   1.084415   2.639216   3.392169   1.860456
     7  H    2.133422   2.872813   1.103256   2.812086   3.844606
     8  H    2.089557   2.606098   1.094137   3.369765   3.646616
     9  H    2.089558   3.321815   1.094139   2.651634   4.176146
    10  H    2.133422   2.872813   2.812086   1.103256   3.111520
    11  H    2.089557   2.606098   3.369765   1.094137   2.357014
    12  H    2.089558   3.321815   2.651634   1.094139   3.604672
                    6          7          8          9         10
     6  H    0.000000
     7  H    3.111520   0.000000
     8  H    2.357014   1.779424   0.000000
     9  H    3.604672   1.779424   1.774682   0.000000
    10  H    3.844606   2.740962   3.817443   3.117261   0.000000
    11  H    3.646616   3.817443   4.161502   3.618784   1.779424
    12  H    4.176146   3.117261   3.618784   2.390026   1.779424
                   11         12
    11  H    0.000000
    12  H    1.774682   0.000000
 Stoichiometry    C3H8N(2)
 Framework group  CS[SG(CN),X(C2H8)]
 Deg. of freedom    16
 Full point group                 CS      NOp   2
 Largest Abelian subgroup         CS      NOp   2
 Largest concise Abelian subgroup CS      NOp   2
                         Standard orientation:                         
 ---------------------------------------------------------------------
 Center     Atomic      Atomic             Coordinates (Angstroms)
 Number     Number       Type             X           Y           Z
 ---------------------------------------------------------------------
      1          7           0        0.175369    0.144226    0.000000
      2          6           0       -0.553541    1.323578    0.000000
      3          6           0        0.175369   -0.637625    1.220494
      4          6           0        0.175369   -0.637625   -1.220494
      5          1           0       -0.558276    1.880901   -0.930228
      6          1           0       -0.558276    1.880901    0.930228
      7          1           0       -0.766461   -1.192272    1.370481
      8          1           0        0.323077    0.022131    2.080751
      9          1           0        0.996278   -1.360535    1.195013
     10          1           0       -0.766461   -1.192272   -1.370481
     11          1           0        0.323077    0.022131   -2.080751
     12          1           0        0.996278   -1.360535   -1.195013
 ---------------------------------------------------------------------
 Rotational constants (GHZ):           9.4217110           8.8864492           4.9285683
 General basis read from cards:  (5D, 7F)
 There are   143 symmetry adapted cartesian basis functions of A'  symmetry.
 There are   117 symmetry adapted cartesian basis functions of A"  symmetry.
 There are   126 symmetry adapted basis functions of A'  symmetry.
 There are   106 symmetry adapted basis functions of A"  symmetry.
   232 basis functions,   348 primitive gaussians,   260 cartesian basis functions
    17 alpha electrons       16 beta electrons
       nuclear repulsion energy       130.3359384698 Hartrees.
 NAtoms=   12 NActive=   12 NUniq=    7 SFac= 2.94D+00 NAtFMM=   60 NAOKFM=F Big=F
 Integral buffers will be    131072 words long.
 Raffenetti 2 integral format.
 Two-electron integral symmetry is turned on.
 One-electron integrals computed using PRISM.
 NBasis=   232 RedAO= T EigKep=  8.82D-04  NBF=   126   106
 NBsUse=   232 1.00D-06 EigRej= -1.00D+00 NBFU=   126   106
 ExpMin= 7.42D-02 ExpMax= 1.02D+04 ExpMxC= 3.47D+02 IAcc=3 IRadAn=         5 AccDes= 0.00D+00
 Harris functional with IExCor=  402 and IRadAn=       5 diagonalized for initial guess.
 HarFok:  IExCor=  402 AccDes= 0.00D+00 IRadAn=         5 IDoV= 1 UseB2=F ITyADJ=14
 ICtDFT=  3500011 ScaDFX=  1.000000  1.000000  1.000000  1.000000
 FoFCou: FMM=F IPFlag=           0 FMFlag=      100000 FMFlg1=           0
         NFxFlg=           0 DoJE=T BraDBF=F KetDBF=T FulRan=T
         wScrn=  0.000000 ICntrl=       500 IOpCl=  0 I1Cent=   200000004 NGrid=           0
         NMat0=    1 NMatS0=      1 NMatT0=    0 NMatD0=    1 NMtDS0=    0 NMtDT0=    0
 Petite list used in FoFCou.
 Initial guess orbital symmetries:
 Alpha Orbitals:
       Occupied  (A') (A") (A') (A') (A') (A") (A') (A') (A") (A')
                 (A') (A") (A') (A") (A") (A') (A')
       Virtual   (A') (A") (A') (A') (A") (A') (A') (A") (A") (A')
                 (A") (A') (A") (A') (A") (A') (A') (A') (A") (A')
                 (A') (A') (A") (A") (A') (A") (A") (A') (A") (A')
                 (A") (A') (A') (A") (A') (A") (A') (A') (A") (A')
                 (A") (A") (A') (A') (A") (A') (A") (A') (A") (A')
                 (A") (A') (A") (A') (A") (A') (A") (A") (A') (A')
                 (A') (A") (A") (A') (A') (A') (A") (A') (A') (A')
                 (A") (A") (A') (A") (A') (A") (A') (A") (A") (A')
                 (A") (A') (A') (A") (A') (A") (A') (A') (A") (A')
                 (A") (A') (A') (A") (A') (A") (A") (A") (A') (A')
                 (A') (A") (A") (A') (A") (A') (A') (A') (A") (A")
                 (A') (A') (A") (A") (A') (A") (A') (A") (A') (A")
                 (A') (A") (A') (A') (A") (A') (A") (A') (A") (A')
                 (A") (A") (A") (A') (A') (A') (A") (A") (A') (A")
                 (A') (A") (A') (A') (A") (A') (A") (A") (A') (A')
                 (A') (A") (A") (A') (A') (A") (A') (A") (A') (A')
                 (A") (A") (A') (A") (A') (A") (A') (A") (A') (A')
                 (A") (A') (A") (A') (A') (A") (A") (A') (A') (A')
                 (A') (A") (A") (A") (A') (A') (A") (A') (A") (A')
                 (A") (A") (A') (A") (A') (A") (A') (A') (A") (A")
                 (A') (A") (A') (A') (A") (A') (A") (A") (A') (A')
                 (A") (A") (A') (A") (A')
 Beta  Orbitals:
       Occupied  (A') (A") (A') (A') (A') (A") (A') (A') (A") (A')
                 (A') (A") (A') (A") (A") (A')
       Virtual   (A') (A') (A") (A') (A') (A") (A') (A') (A") (A")
                 (A') (A") (A') (A") (A') (A") (A') (A') (A') (A")
                 (A') (A') (A') (A") (A") (A') (A") (A") (A') (A")
                 (A') (A") (A') (A') (A") (A') (A") (A') (A') (A")
                 (A') (A") (A") (A') (A') (A") (A') (A") (A') (A")
                 (A') (A") (A') (A") (A') (A") (A') (A") (A") (A')
                 (A') (A') (A") (A") (A') (A') (A') (A") (A') (A')
                 (A') (A") (A") (A') (A") (A') (A") (A') (A") (A")
                 (A') (A") (A') (A') (A") (A') (A") (A') (A') (A")
                 (A') (A") (A') (A') (A") (A') (A") (A") (A") (A')
                 (A') (A') (A") (A") (A') (A") (A') (A') (A') (A")
                 (A") (A') (A') (A") (A") (A') (A") (A') (A") (A')
                 (A") (A') (A") (A') (A') (A") (A') (A") (A') (A")
                 (A') (A") (A") (A") (A') (A') (A') (A") (A") (A')
                 (A") (A') (A") (A') (A') (A") (A') (A") (A") (A')
                 (A') (A') (A") (A") (A') (A') (A") (A') (A") (A')
                 (A') (A") (A") (A') (A") (A') (A") (A') (A") (A')
                 (A') (A") (A') (A") (A') (A') (A") (A") (A') (A')
                 (A') (A') (A") (A") (A") (A') (A') (A") (A') (A")
                 (A') (A") (A") (A') (A") (A') (A") (A') (A') (A")
                 (A") (A') (A") (A') (A') (A") (A') (A") (A") (A')
                 (A') (A") (A") (A') (A") (A')
 The electronic state of the initial guess is 2-A'.
 Initial guess <Sx>= 0.0000 <Sy>= 0.0000 <Sz>= 0.5000 <S**2>= 0.7500 S= 0.5000
 Keep R1 and R2 ints in memory in symmetry-blocked form, NReq=548058161.
 Requested convergence on RMS density matrix=1.00D-08 within 128 cycles.
 Requested convergence on MAX density matrix=1.00D-06.
 Requested convergence on             energy=1.00D-06.
 No special actions if energy rises.
 Integral accuracy reduced to 1.0D-05 until final iterations.
 Initial convergence to 1.0D-05 achieved.  Increase integral accuracy.
 SCF Done:  E(UB3LYP) =  -173.893731664     A.U. after   14 cycles
            NFock= 14  Conv=0.47D-08     -V/T= 2.0047
 <Sx>= 0.0000 <Sy>= 0.0000 <Sz>= 0.5000 <S**2>= 0.7539 S= 0.5019
 <L.S>=  0.00000000000    
 Annihilation of the first spin contaminant:
 S**2 before annihilation     0.7539,   after     0.7500

 **********************************************************************

            Population analysis using the SCF Density.

 **********************************************************************

 Orbital symmetries:
 Alpha Orbitals:
       Occupied  (A') (A") (A') (A') (A') (A") (A') (A') (A") (A')
                 (A') (A") (A') (A") (A") (A') (A')
       Virtual   (A') (A") (A') (A') (A") (A') (A') (A") (A") (A')
                 (A') (A") (A") (A') (A') (A") (A') (A") (A') (A')
                 (A") (A') (A') (A") (A') (A") (A") (A') (A") (A')
                 (A') (A") (A') (A") (A') (A") (A') (A") (A') (A')
                 (A") (A") (A') (A') (A") (A') (A") (A') (A") (A")
                 (A') (A") (A') (A') (A") (A') (A") (A") (A') (A')
                 (A') (A") (A') (A") (A') (A') (A") (A') (A') (A')
                 (A") (A") (A') (A") (A') (A") (A') (A") (A') (A")
                 (A") (A') (A') (A") (A') (A") (A') (A') (A") (A')
                 (A') (A") (A') (A") (A') (A") (A") (A") (A') (A')
                 (A') (A") (A") (A') (A') (A") (A') (A") (A') (A")
                 (A') (A') (A") (A") (A') (A") (A') (A") (A') (A")
                 (A') (A") (A') (A') (A") (A') (A") (A') (A") (A')
                 (A") (A") (A") (A') (A') (A') (A") (A") (A') (A")
                 (A') (A") (A') (A') (A") (A") (A') (A") (A') (A')
                 (A") (A') (A') (A') (A") (A") (A') (A") (A') (A')
                 (A") (A") (A") (A') (A') (A") (A') (A") (A') (A")
                 (A') (A") (A') (A') (A') (A") (A") (A') (A') (A')
                 (A') (A") (A") (A") (A') (A') (A") (A') (A") (A')
                 (A") (A") (A') (A") (A') (A") (A') (A') (A") (A")
                 (A') (A") (A') (A') (A") (A') (A") (A") (A') (A')
                 (A") (A") (A') (A") (A')
 Beta  Orbitals:
       Occupied  (A') (A") (A') (A') (A') (A") (A') (A') (A") (A')
                 (A') (A") (A') (A") (A") (A')
       Virtual   (A') (A') (A") (A') (A') (A") (A') (A') (A") (A")
                 (A') (A") (A') (A") (A') (A') (A") (A") (A') (A')
                 (A') (A") (A') (A') (A") (A') (A") (A") (A') (A")
                 (A') (A") (A') (A') (A") (A') (A") (A') (A") (A')
                 (A') (A") (A") (A') (A') (A") (A") (A') (A') (A")
                 (A") (A') (A") (A') (A') (A") (A') (A") (A") (A')
                 (A') (A') (A") (A") (A') (A') (A') (A") (A') (A')
                 (A') (A") (A") (A') (A") (A') (A") (A') (A") (A')
                 (A") (A") (A') (A') (A") (A') (A") (A') (A") (A')
                 (A') (A') (A") (A') (A") (A') (A") (A") (A") (A')
                 (A') (A") (A') (A") (A') (A") (A') (A') (A") (A')
                 (A") (A') (A') (A") (A") (A') (A") (A') (A") (A')
                 (A") (A') (A") (A') (A') (A") (A") (A') (A') (A")
                 (A') (A") (A") (A") (A') (A') (A') (A") (A") (A')
                 (A") (A') (A") (A') (A') (A") (A") (A') (A") (A')
                 (A') (A") (A') (A') (A") (A') (A") (A') (A") (A')
                 (A') (A") (A") (A") (A') (A') (A") (A') (A") (A')
                 (A") (A') (A") (A') (A') (A') (A") (A") (A') (A')
                 (A') (A') (A") (A") (A") (A') (A') (A") (A') (A")
                 (A') (A") (A") (A') (A") (A') (A") (A') (A") (A')
                 (A") (A') (A") (A') (A') (A") (A') (A") (A") (A')
                 (A') (A") (A") (A') (A") (A')
 The electronic state is 2-A'.
 Alpha  occ. eigenvalues --  -14.33878 -10.19982 -10.19982 -10.17655  -0.94527
 Alpha  occ. eigenvalues --   -0.72164  -0.70665  -0.58679  -0.48662  -0.48088
 Alpha  occ. eigenvalues --   -0.46723  -0.40402  -0.39155  -0.38342  -0.37822
 Alpha  occ. eigenvalues --   -0.30381  -0.14714
 Alpha virt. eigenvalues --    0.01060   0.04407   0.05252   0.06782   0.06979
 Alpha virt. eigenvalues --    0.07772   0.08846   0.10487   0.13028   0.14561
 Alpha virt. eigenvalues --    0.16340   0.16538   0.18547   0.18920   0.25879
 Alpha virt. eigenvalues --    0.26969   0.27308   0.27384   0.28952   0.31376
 Alpha virt. eigenvalues --    0.33039   0.33140   0.33914   0.35142   0.35823
 Alpha virt. eigenvalues --    0.36903   0.37070   0.39275   0.41622   0.42294
 Alpha virt. eigenvalues --    0.46321   0.46445   0.49095   0.55804   0.56761
 Alpha virt. eigenvalues --    0.73285   0.74557   0.82768   0.83777   0.84848
 Alpha virt. eigenvalues --    0.85562   0.89222   0.89532   0.91520   0.92567
 Alpha virt. eigenvalues --    0.97127   0.97324   0.99845   1.02983   1.04948
 Alpha virt. eigenvalues --    1.04979   1.06014   1.06338   1.07078   1.08519
 Alpha virt. eigenvalues --    1.12740   1.14111   1.16064   1.16732   1.21312
 Alpha virt. eigenvalues --    1.23890   1.26906   1.30667   1.30744   1.33229
 Alpha virt. eigenvalues --    1.38327   1.40241   1.44987   1.46948   1.49582
 Alpha virt. eigenvalues --    1.52654   1.57356   1.60913   1.62950   1.66711
 Alpha virt. eigenvalues --    1.68400   1.72124   1.73658   1.78013   1.79035
 Alpha virt. eigenvalues --    1.81263   1.86898   1.87466   1.88524   1.94453
 Alpha virt. eigenvalues --    1.97459   2.11107   2.17032   2.17105   2.23003
 Alpha virt. eigenvalues --    2.26513   2.27278   2.31976   2.38576   2.48978
 Alpha virt. eigenvalues --    2.52379   2.54674   2.56711   2.58601   2.60563
 Alpha virt. eigenvalues --    3.00263   3.00282   3.15903   3.17619   3.23132
 Alpha virt. eigenvalues --    3.23180   3.25358   3.26764   3.26866   3.32851
 Alpha virt. eigenvalues --    3.34455   3.38176   3.39754   3.43635   3.44439
 Alpha virt. eigenvalues --    3.50704   3.52029   3.60504   3.65814   3.67623
 Alpha virt. eigenvalues --    3.71015   3.75211   3.76269   3.79743   3.81640
 Alpha virt. eigenvalues --    3.84849   3.84952   3.85990   3.87316   3.90471
 Alpha virt. eigenvalues --    3.93546   3.95775   4.01055   4.01362   4.05679
 Alpha virt. eigenvalues --    4.11625   4.17129   4.17963   4.21270   4.25211
 Alpha virt. eigenvalues --    4.25242   4.27128   4.28487   4.30043   4.31663
 Alpha virt. eigenvalues --    4.35443   4.36265   4.39653   4.42565   4.45459
 Alpha virt. eigenvalues --    4.45730   4.46665   4.51078   4.52507   4.52715
 Alpha virt. eigenvalues --    4.57191   4.57580   4.59252   4.62730   4.63250
 Alpha virt. eigenvalues --    4.64364   4.68386   4.69877   4.70848   4.73857
 Alpha virt. eigenvalues --    4.74772   4.76839   4.81375   4.82954   4.88520
 Alpha virt. eigenvalues --    4.89701   5.00097   5.00565   5.04287   5.06153
 Alpha virt. eigenvalues --    5.11337   5.13742   5.18240   5.27342   5.30947
 Alpha virt. eigenvalues --    5.34400   5.37513   5.41181   5.48178   5.53262
 Alpha virt. eigenvalues --    5.57495   5.57643   5.63038   5.66852   5.70653
 Alpha virt. eigenvalues --    5.71148   5.75384   5.77472   5.78196   5.80195
 Alpha virt. eigenvalues --    5.81892   5.84879   5.87234   5.87245   5.91229
 Alpha virt. eigenvalues --    5.93157   5.94529   5.97544   5.98461   5.99651
 Alpha virt. eigenvalues --    6.05402   6.07228   6.12536   6.13715   6.19397
 Alpha virt. eigenvalues --    6.26448   6.38063   6.39848   6.48315   7.12482
  Beta  occ. eigenvalues --  -14.33280 -10.19992 -10.19991 -10.16571  -0.93433
  Beta  occ. eigenvalues --   -0.72056  -0.69511  -0.57427  -0.48310  -0.47331
  Beta  occ. eigenvalues --   -0.45733  -0.40258  -0.38884  -0.38236  -0.37243
  Beta  occ. eigenvalues --   -0.26404
  Beta virt. eigenvalues --   -0.03221   0.01219   0.04416   0.05380   0.06993
  Beta virt. eigenvalues --    0.07053   0.08081   0.09164   0.10517   0.13032
  Beta virt. eigenvalues --    0.14871   0.16600   0.16815   0.18703   0.20389
  Beta virt. eigenvalues --    0.26841   0.27041   0.27454   0.28515   0.29290
  Beta virt. eigenvalues --    0.31898   0.33334   0.33547   0.34196   0.35238
  Beta virt. eigenvalues --    0.36576   0.37007   0.37317   0.40019   0.42377
  Beta virt. eigenvalues --    0.43213   0.46618   0.46810   0.49625   0.55921
  Beta virt. eigenvalues --    0.57058   0.73529   0.74936   0.83328   0.84128
  Beta virt. eigenvalues --    0.85743   0.85966   0.89412   0.89630   0.91612
  Beta virt. eigenvalues --    0.92680   0.97424   0.98189   1.01010   1.03069
  Beta virt. eigenvalues --    1.05010   1.05082   1.06139   1.07130   1.07401
  Beta virt. eigenvalues --    1.08709   1.13196   1.14465   1.16534   1.17435
  Beta virt. eigenvalues --    1.22007   1.24862   1.27078   1.31184   1.31814
  Beta virt. eigenvalues --    1.33675   1.41337   1.41723   1.46023   1.47547
  Beta virt. eigenvalues --    1.51321   1.52806   1.57681   1.61722   1.63298
  Beta virt. eigenvalues --    1.67028   1.68571   1.73289   1.73785   1.78250
  Beta virt. eigenvalues --    1.79280   1.81629   1.87829   1.88162   1.88635
  Beta virt. eigenvalues --    1.95758   1.98206   2.11478   2.17431   2.18585
  Beta virt. eigenvalues --    2.23320   2.26928   2.27590   2.32518   2.39252
  Beta virt. eigenvalues --    2.50038   2.52854   2.55007   2.57167   2.58973
  Beta virt. eigenvalues --    2.61144   3.00562   3.00885   3.16384   3.18387
  Beta virt. eigenvalues --    3.23548   3.24308   3.26030   3.26840   3.27257
  Beta virt. eigenvalues --    3.33394   3.34918   3.38761   3.40310   3.43720
  Beta virt. eigenvalues --    3.46127   3.51216   3.53133   3.61426   3.66370
  Beta virt. eigenvalues --    3.67827   3.71306   3.75310   3.76863   3.81255
  Beta virt. eigenvalues --    3.81742   3.85115   3.86199   3.87248   3.87634
  Beta virt. eigenvalues --    3.90786   3.93787   3.96828   4.01534   4.02387
  Beta virt. eigenvalues --    4.07000   4.12735   4.17781   4.18705   4.21976
  Beta virt. eigenvalues --    4.25803   4.25903   4.28969   4.29077   4.31034
  Beta virt. eigenvalues --    4.32310   4.35924   4.36890   4.40242   4.42925
  Beta virt. eigenvalues --    4.45714   4.45898   4.47138   4.51735   4.52822
  Beta virt. eigenvalues --    4.53492   4.57329   4.58007   4.59483   4.63041
  Beta virt. eigenvalues --    4.63610   4.64547   4.68558   4.70014   4.71130
  Beta virt. eigenvalues --    4.74155   4.75066   4.77083   4.81658   4.83814
  Beta virt. eigenvalues --    4.88877   4.90399   5.00536   5.01180   5.05091
  Beta virt. eigenvalues --    5.07098   5.11577   5.13923   5.19285   5.28221
  Beta virt. eigenvalues --    5.31675   5.35105   5.38136   5.41543   5.48315
  Beta virt. eigenvalues --    5.53771   5.58140   5.59005   5.63552   5.67138
  Beta virt. eigenvalues --    5.71240   5.71265   5.75604   5.77619   5.78430
  Beta virt. eigenvalues --    5.80578   5.82266   5.85374   5.87342   5.88074
  Beta virt. eigenvalues --    5.91940   5.93773   5.94817   5.97930   5.98992
  Beta virt. eigenvalues --    6.00543   6.06056   6.07404   6.12822   6.13820
  Beta virt. eigenvalues --    6.19695   6.26695   6.38426   6.40435   6.48593
  Beta virt. eigenvalues --    7.12714
          Condensed to atoms (all electrons):
               1          2          3          4          5          6
     1  N    6.667970   0.305373   0.307458   0.307458  -0.031474  -0.031474
     2  C    0.305373   5.072164  -0.070231  -0.070231   0.415432   0.415432
     3  C    0.307458  -0.070231   4.512864  -0.053910   0.009396  -0.012819
     4  C    0.307458  -0.070231  -0.053910   4.512864  -0.012819   0.009396
     5  H   -0.031474   0.415432   0.009396  -0.012819   0.625556  -0.035944
     6  H   -0.031474   0.415432  -0.012819   0.009396  -0.035944   0.625556
     7  H   -0.061123   0.019631   0.410062  -0.013620  -0.001199  -0.003539
     8  H   -0.033500  -0.014961   0.418797   0.011682   0.000761   0.006778
     9  H   -0.039872   0.008511   0.417923  -0.007795  -0.000491   0.000673
    10  H   -0.061123   0.019631  -0.013620   0.410062  -0.003539  -0.001199
    11  H   -0.033500  -0.014961   0.011682   0.418797   0.006778   0.000761
    12  H   -0.039872   0.008511  -0.007795   0.417923   0.000673  -0.000491
               7          8          9         10         11         12
     1  N   -0.061123  -0.033500  -0.039872  -0.061123  -0.033500  -0.039872
     2  C    0.019631  -0.014961   0.008511   0.019631  -0.014961   0.008511
     3  C    0.410062   0.418797   0.417923  -0.013620   0.011682  -0.007795
     4  C   -0.013620   0.011682  -0.007795   0.410062   0.418797   0.417923
     5  H   -0.001199   0.000761  -0.000491  -0.003539   0.006778   0.000673
     6  H   -0.003539   0.006778   0.000673  -0.001199   0.000761  -0.000491
     7  H    0.708239  -0.043685  -0.050034   0.023762  -0.002497  -0.004870
     8  H   -0.043685   0.637161  -0.016569  -0.002497   0.000243   0.000884
     9  H   -0.050034  -0.016569   0.659965  -0.004870   0.000884   0.007206
    10  H    0.023762  -0.002497  -0.004870   0.708239  -0.043685  -0.050034
    11  H   -0.002497   0.000243   0.000884  -0.043685   0.637161  -0.016569
    12  H   -0.004870   0.000884   0.007206  -0.050034  -0.016569   0.659965
          Atomic-Atomic Spin Densities.
               1          2          3          4          5          6
     1  N    0.438794  -0.238010   0.008612   0.008612  -0.002576  -0.002576
     2  C   -0.238010   1.053557  -0.017172  -0.017172  -0.004329  -0.004329
     3  C    0.008612  -0.017172   0.004109   0.009208  -0.000167  -0.000448
     4  C    0.008612  -0.017172   0.009208   0.004109  -0.000448  -0.000167
     5  H   -0.002576  -0.004329  -0.000167  -0.000448  -0.021794   0.008569
     6  H   -0.002576  -0.004329  -0.000448  -0.000167   0.008569  -0.021794
     7  H   -0.014047   0.033890  -0.022881  -0.010753  -0.001336  -0.003009
     8  H   -0.006967  -0.004650   0.003147   0.002018   0.000748   0.003365
     9  H   -0.002501  -0.000084   0.005418   0.001944   0.000117  -0.000024
    10  H   -0.014047   0.033890  -0.010753  -0.022881  -0.003009  -0.001336
    11  H   -0.006967  -0.004650   0.002018   0.003147   0.003365   0.000748
    12  H   -0.002501  -0.000084   0.001944   0.005418  -0.000024   0.000117
               7          8          9         10         11         12
     1  N   -0.014047  -0.006967  -0.002501  -0.014047  -0.006967  -0.002501
     2  C    0.033890  -0.004650  -0.000084   0.033890  -0.004650  -0.000084
     3  C   -0.022881   0.003147   0.005418  -0.010753   0.002018   0.001944
     4  C   -0.010753   0.002018   0.001944  -0.022881   0.003147   0.005418
     5  H   -0.001336   0.000748   0.000117  -0.003009   0.003365  -0.000024
     6  H   -0.003009   0.003365  -0.000024  -0.001336   0.000748   0.000117
     7  H    0.063004  -0.016458  -0.001182   0.013914  -0.002184  -0.000271
     8  H   -0.016458   0.020082   0.002087  -0.002184   0.000618   0.000225
     9  H   -0.001182   0.002087  -0.005588  -0.000271   0.000225  -0.001350
    10  H    0.013914  -0.002184  -0.000271   0.063004  -0.016458  -0.001182
    11  H   -0.002184   0.000618   0.000225  -0.016458   0.020082   0.002087
    12  H   -0.000271   0.000225  -0.001350  -0.001182   0.002087  -0.005588
 Mulliken charges and spin densities:
               1          2
     1  N   -0.256320   0.165826
     2  C   -0.094302   0.830858
     3  C    0.070192  -0.016965
     4  C    0.070192  -0.016965
     5  H    0.026872  -0.020883
     6  H    0.026872  -0.020883
     7  H    0.018872   0.038687
     8  H    0.034907   0.002029
     9  H    0.024469  -0.001209
    10  H    0.018872   0.038687
    11  H    0.034907   0.002029
    12  H    0.024469  -0.001209
 Sum of Mulliken charges =  -0.00000   1.00000
 Mulliken charges and spin densities with hydrogens summed into heavy atoms:
               1          2
     1  N   -0.256320   0.165826
     2  C   -0.040558   0.789091
     3  C    0.148439   0.022541
     4  C    0.148439   0.022541
 Electronic spatial extent (au):  <R**2>=            312.6981
 Charge=             -0.0000 electrons
 Dipole moment (field-independent basis, Debye):
    X=              0.7156    Y=             -1.0623    Z=             -0.0000  Tot=              1.2808
 Quadrupole moment (field-independent basis, Debye-Ang):
   XX=            -30.0484   YY=            -27.3052   ZZ=            -24.8518
   XY=             -0.2541   XZ=              0.0000   YZ=             -0.0000
 Traceless Quadrupole moment (field-independent basis, Debye-Ang):
   XX=             -2.6466   YY=              0.0966   ZZ=              2.5500
   XY=             -0.2541   XZ=              0.0000   YZ=             -0.0000
 Octapole moment (field-independent basis, Debye-Ang**2):
  XXX=              5.8063  YYY=             -1.6894  ZZZ=             -0.0000  XYY=              1.0609
  XXY=             -4.2577  XXZ=              0.0000  XZZ=              1.5016  YZZ=              1.3387
  YYZ=             -0.0000  XYZ=             -0.0000
 Hexadecapole moment (field-independent basis, Debye-Ang**3):
 XXXX=            -74.2436 YYYY=           -182.7540 ZZZZ=           -195.4540 XXXY=             25.3507
 XXXZ=             -0.0000 YYYX=             18.2896 YYYZ=             -0.0000 ZZZX=             -0.0000
 ZZZY=              0.0000 XXYY=            -42.3558 XXZZ=            -45.9580 YYZZ=            -60.6252
 XXYZ=             -0.0000 YYXZ=             -0.0000 ZZXY=              6.8554
 N-N= 1.303359384698D+02 E-N=-6.639427757549D+02  KE= 1.730854943060D+02
 Symmetry A'   KE= 1.288994718254D+02
 Symmetry A"   KE= 4.418602248057D+01
 Symmetry A'   SP= 1.000000000000D+00
 Symmetry A"   SP=-2.670698963009D-14
                          Isotropic Fermi Contact Couplings
        Atom                 a.u.       MegaHertz       Gauss      10(-4) cm-1
     1  N(14)              0.07111      22.97727       8.19886       7.66439
     2  C(13)              0.13693     153.93886      54.92921      51.34848
     3  C(13)              0.00383       4.30654       1.53668       1.43651
     4  C(13)              0.00383       4.30654       1.53668       1.43651
     5  H(1)              -0.00567     -25.34454      -9.04356      -8.45403
     6  H(1)              -0.00567     -25.34454      -9.04356      -8.45403
     7  H(1)               0.00566      25.29714       9.02665       8.43822
     8  H(1)               0.00147       6.56820       2.34370       2.19092
     9  H(1)               0.00034       1.50132       0.53571       0.50079
    10  H(1)               0.00566      25.29714       9.02665       8.43822
    11  H(1)               0.00147       6.56820       2.34370       2.19092
    12  H(1)               0.00034       1.50132       0.53571       0.50079
 --------------------------------------------------------
       Center         ----  Spin Dipole Couplings  ----
                      3XX-RR        3YY-RR        3ZZ-RR
 --------------------------------------------------------
     1   Atom        0.655162     -0.291089     -0.364073
     2   Atom        0.739730     -0.300993     -0.438737
     3   Atom       -0.011319     -0.001126      0.012445
     4   Atom       -0.011319     -0.001126      0.012445
     5   Atom       -0.004424     -0.022323      0.026746
     6   Atom       -0.004424     -0.022323      0.026746
     7   Atom       -0.005503      0.005000      0.000503
     8   Atom       -0.004669     -0.004894      0.009563
     9   Atom       -0.002447      0.003735     -0.001288
    10   Atom       -0.005503      0.005000      0.000503
    11   Atom       -0.004669     -0.004894      0.009563
    12   Atom       -0.002447      0.003735     -0.001288
 --------------------------------------------------------
                        XY            XZ            YZ
 --------------------------------------------------------
     1   Atom        0.251858      0.000000      0.000000
     2   Atom        0.410108     -0.000000     -0.000000
     3   Atom       -0.008815      0.005803     -0.013084
     4   Atom       -0.008815     -0.005803      0.013084
     5   Atom        0.015473      0.008103     -0.044152
     6   Atom        0.015473     -0.008103      0.044152
     7   Atom        0.000432     -0.001790     -0.008283
     8   Atom       -0.002024      0.004113     -0.005499
     9   Atom       -0.004815      0.003917     -0.007382
    10   Atom        0.000432      0.001790      0.008283
    11   Atom       -0.002024     -0.004113      0.005499
    12   Atom       -0.004815     -0.003917      0.007382
 --------------------------------------------------------


 ---------------------------------------------------------------------------------
              Anisotropic Spin Dipole Couplings in Principal Axis System
 ---------------------------------------------------------------------------------

       Atom             a.u.   MegaHertz   Gauss  10(-4) cm-1        Axes

              Baa    -0.3641   -14.042    -5.010    -4.684  0.0000 -0.0000  1.0000
     1 N(14)  Bbb    -0.3539   -13.651    -4.871    -4.553 -0.2422  0.9702  0.0000
              Bcc     0.7180    27.693     9.881     9.237  0.9702  0.2422  0.0000
 
              Baa    -0.4432   -59.470   -21.220   -19.837 -0.3276  0.9448  0.0000
     2 C(13)  Bbb    -0.4387   -58.874   -21.008   -19.638  0.0000 -0.0000  1.0000
              Bcc     0.8819   118.344    42.228    39.475  0.9448  0.3276 -0.0000
 
              Baa    -0.0165    -2.217    -0.791    -0.740  0.8348  0.5449  0.0789
     3 C(13)  Bbb    -0.0066    -0.881    -0.314    -0.294 -0.4790  0.6480  0.5922
              Bcc     0.0231     3.099     1.106     1.034  0.2716 -0.5321  0.8019
 
              Baa    -0.0165    -2.217    -0.791    -0.740  0.8348  0.5449 -0.0789
     4 C(13)  Bbb    -0.0066    -0.881    -0.314    -0.294 -0.4790  0.6480 -0.5922
              Bcc     0.0231     3.099     1.106     1.034 -0.2716  0.5321  0.8019
 
              Baa    -0.0544   -29.020   -10.355    -9.680 -0.3297  0.8151  0.4764
     5 H(1)   Bbb     0.0017     0.883     0.315     0.294  0.9440  0.2761  0.1809
              Bcc     0.0527    28.137    10.040     9.386 -0.0159 -0.5094  0.8604
 
              Baa    -0.0544   -29.020   -10.355    -9.680 -0.3297  0.8151 -0.4764
     6 H(1)   Bbb     0.0017     0.883     0.315     0.294  0.9440  0.2761 -0.1809
              Bcc     0.0527    28.137    10.040     9.386  0.0159  0.5094  0.8604
 
              Baa    -0.0069    -3.675    -1.311    -1.226  0.6726  0.4064  0.6184
     7 H(1)   Bbb    -0.0046    -2.437    -0.870    -0.813  0.7352 -0.4623 -0.4957
              Bcc     0.0115     6.112     2.181     2.039  0.0844  0.7881 -0.6098
 
              Baa    -0.0070    -3.756    -1.340    -1.253  0.4323  0.8825  0.1852
     8 H(1)   Bbb    -0.0056    -2.974    -1.061    -0.992  0.8650 -0.3479 -0.3614
              Bcc     0.0126     6.730     2.401     2.245  0.2545 -0.3165  0.9138
 
              Baa    -0.0067    -3.552    -1.267    -1.185 -0.2110  0.4992  0.8404
     9 H(1)   Bbb    -0.0051    -2.707    -0.966    -0.903  0.8916  0.4506 -0.0439
              Bcc     0.0117     6.259     2.233     2.088 -0.4006  0.7401 -0.5402
 
              Baa    -0.0069    -3.675    -1.311    -1.226  0.6726  0.4064 -0.6184
    10 H(1)   Bbb    -0.0046    -2.437    -0.870    -0.813  0.7352 -0.4623  0.4957
              Bcc     0.0115     6.112     2.181     2.039  0.0844  0.7881  0.6098
 
              Baa    -0.0070    -3.756    -1.340    -1.253  0.4323  0.8825 -0.1852
    11 H(1)   Bbb    -0.0056    -2.974    -1.061    -0.992  0.8650 -0.3479  0.3614
              Bcc     0.0126     6.730     2.401     2.245 -0.2545  0.3165  0.9138
 
              Baa    -0.0067    -3.552    -1.267    -1.185  0.2110 -0.4992  0.8404
    12 H(1)   Bbb    -0.0051    -2.707    -0.966    -0.903  0.8916  0.4506  0.0439
              Bcc     0.0117     6.259     2.233     2.088 -0.4006  0.7401  0.5402
 

 ---------------------------------------------------------------------------------

 Calling FoFJK, ICntrl=      2127 FMM=F ISym2X=1 I1Cent= 0 IOpClX= 1 NMat=1 NMatS=1 NMatT=0.
 ***** Axes restored to original set *****
 -------------------------------------------------------------------
 Center     Atomic                   Forces (Hartrees/Bohr)
 Number     Number              X              Y              Z
 -------------------------------------------------------------------
      1        7           0.000000000    0.003704738    0.004082827
      2        6           0.000000000   -0.001743689   -0.005199008
      3        6           0.003349657   -0.001597412   -0.000896140
      4        6          -0.003349657   -0.001597412   -0.000896140
      5        1           0.002037087   -0.001026138    0.001531401
      6        1          -0.002037087   -0.001026138    0.001531401
      7        1          -0.000999768    0.001068187   -0.002276873
      8        1          -0.002735014   -0.001659307    0.001089400
      9        1           0.000228414    0.002234146    0.001110303
     10        1           0.000999768    0.001068187   -0.002276873
     11        1           0.002735014   -0.001659307    0.001089400
     12        1          -0.000228414    0.002234146    0.001110303
 -------------------------------------------------------------------
 Cartesian Forces:  Max     0.005199008 RMS     0.002073332

 GradGradGradGradGradGradGradGradGradGradGradGradGradGradGradGradGradGrad
 Berny optimization.
 FormGI is forming the generalized inverse of G from B-inverse, IUseBI=4.
 Internal  Forces:  Max     0.004170858 RMS     0.001407868
 Search for a local minimum.
 Step number   1 out of a maximum of   55
 All quantities printed in internal units (Hartrees-Bohrs-Radians)
 Mixed Optimization -- RFO/linear search
 Second derivative matrix not updated -- first step.
 ITU=  0
     Eigenvalues ---    0.01038   0.01038   0.01871   0.01980   0.03331
     Eigenvalues ---    0.07276   0.07276   0.07622   0.07622   0.16000
     Eigenvalues ---    0.16000   0.16000   0.16000   0.16000   0.16000
     Eigenvalues ---    0.16000   0.16000   0.20751   0.22023   0.33325
     Eigenvalues ---    0.33325   0.34339   0.34339   0.34339   0.34339
     Eigenvalues ---    0.35466   0.35466   0.38317   0.38317   0.47946
 RFO step:  Lambda=-3.99617792D-04 EMin= 1.03769206D-02
 Linear search not attempted -- first point.
 Iteration  1 RMS(Cart)=  0.00886787 RMS(Int)=  0.00025142
 Iteration  2 RMS(Cart)=  0.00019627 RMS(Int)=  0.00018340
 Iteration  3 RMS(Cart)=  0.00000007 RMS(Int)=  0.00018340
 ClnCor:  largest displacement from symmetrization is 2.44D-11 for atom    11.
 Variable       Old X    -DE/DX   Delta X   Delta X   Delta X     New X
                                 (Linear)    (Quad)   (Total)
    R1        2.61997  -0.00417   0.00000  -0.00869  -0.00869   2.61128
    R2        2.73906  -0.00033   0.00000  -0.00085  -0.00085   2.73821
    R3        2.73906  -0.00033   0.00000  -0.00085  -0.00085   2.73821
    R4        2.04925  -0.00250   0.00000  -0.00704  -0.00704   2.04221
    R5        2.04925  -0.00250   0.00000  -0.00704  -0.00704   2.04221
    R6        2.08485  -0.00256   0.00000  -0.00766  -0.00766   2.07719
    R7        2.06762  -0.00338   0.00000  -0.00982  -0.00982   2.05780
    R8        2.06762  -0.00250   0.00000  -0.00726  -0.00726   2.06036
    R9        2.08485  -0.00256   0.00000  -0.00766  -0.00766   2.07719
   R10        2.06762  -0.00338   0.00000  -0.00982  -0.00982   2.05780
   R11        2.06762  -0.00250   0.00000  -0.00726  -0.00726   2.06036
    A1        2.04749  -0.00005   0.00000   0.00168   0.00166   2.04916
    A2        2.04749  -0.00005   0.00000   0.00168   0.00166   2.04916
    A3        2.00211   0.00023   0.00000   0.00281   0.00279   2.00490
    A4        2.02581   0.00079   0.00000   0.01357   0.01293   2.03874
    A5        2.02581   0.00079   0.00000   0.01357   0.01293   2.03874
    A6        2.06201  -0.00024   0.00000   0.00910   0.00835   2.07036
    A7        1.96672  -0.00132   0.00000  -0.00872  -0.00872   1.95799
    A8        1.91430  -0.00005   0.00000  -0.00066  -0.00067   1.91363
    A9        1.91430   0.00047   0.00000   0.00380   0.00380   1.91810
   A10        1.88757   0.00043   0.00000   0.00113   0.00111   1.88868
   A11        1.88757   0.00052   0.00000   0.00382   0.00383   1.89140
   A12        1.89170  -0.00002   0.00000   0.00096   0.00095   1.89266
   A13        1.96672  -0.00132   0.00000  -0.00872  -0.00872   1.95799
   A14        1.91430  -0.00005   0.00000  -0.00066  -0.00067   1.91363
   A15        1.91430   0.00047   0.00000   0.00380   0.00380   1.91810
   A16        1.88757   0.00043   0.00000   0.00113   0.00111   1.88868
   A17        1.88757   0.00052   0.00000   0.00382   0.00383   1.89140
   A18        1.89170  -0.00002   0.00000   0.00096   0.00095   1.89266
    D1       -3.11794   0.00087   0.00000   0.02490   0.02508  -3.09286
    D2        0.62607  -0.00116   0.00000  -0.03541  -0.03558   0.59049
    D3       -0.62607   0.00116   0.00000   0.03541   0.03558  -0.59049
    D4        3.11794  -0.00087   0.00000  -0.02490  -0.02508   3.09286
    D5        1.32669  -0.00005   0.00000   0.00433   0.00434   1.33103
    D6       -0.77705   0.00030   0.00000   0.00913   0.00913  -0.76793
    D7       -2.85275   0.00007   0.00000   0.00606   0.00605  -2.84669
    D8       -1.18172  -0.00023   0.00000  -0.00551  -0.00550  -1.18722
    D9        2.99772   0.00013   0.00000  -0.00071  -0.00072   2.99701
   D10        0.92203  -0.00011   0.00000  -0.00378  -0.00379   0.91824
   D11       -1.32669   0.00005   0.00000  -0.00433  -0.00434  -1.33103
   D12        0.77705  -0.00030   0.00000  -0.00913  -0.00913   0.76793
   D13        2.85275  -0.00007   0.00000  -0.00606  -0.00605   2.84669
   D14        1.18172   0.00023   0.00000   0.00551   0.00550   1.18722
   D15       -2.99772  -0.00013   0.00000   0.00071   0.00072  -2.99701
   D16       -0.92203   0.00011   0.00000   0.00378   0.00379  -0.91824
         Item               Value     Threshold  Converged?
 Maximum Force            0.004171     0.000450     NO 
 RMS     Force            0.001408     0.000300     NO 
 Maximum Displacement     0.028633     0.001800     NO 
 RMS     Displacement     0.008875     0.001200     NO 
 Predicted change in Energy=-2.041427D-04
 GradGradGradGradGradGradGradGradGradGradGradGradGradGradGradGradGradGrad

                          Input orientation:                          
 ---------------------------------------------------------------------
 Center     Atomic      Atomic             Coordinates (Angstroms)
 Number     Number       Type             X           Y           Z
 ---------------------------------------------------------------------
      1          7           0        0.000000    0.055179   -0.207386
      2          6           0        0.000000    1.406244    0.082560
      3          6           0        1.221203   -0.681787    0.047826
      4          6           0       -1.221203   -0.681787    0.047826
      5          1           0       -0.929345    1.936994   -0.067494
      6          1           0        0.929345    1.936994   -0.067494
      7          1           0        1.365984   -0.887375    1.117880
      8          1           0        2.075952   -0.108084   -0.307225
      9          1           0        1.198897   -1.632850   -0.484836
     10          1           0       -1.365984   -0.887375    1.117880
     11          1           0       -2.075952   -0.108084   -0.307225
     12          1           0       -1.198897   -1.632850   -0.484836
 ---------------------------------------------------------------------
                    Distance matrix (angstroms):
                    1          2          3          4          5
     1  N    0.000000
     2  C    1.381828   0.000000
     3  C    1.448996   2.419177   0.000000
     4  C    1.448996   2.419177   2.442407   0.000000
     5  H    2.103445   1.080691   3.390600   2.637516   0.000000
     6  H    2.103445   1.080691   2.637516   3.390600   1.858690
     7  H    2.123829   2.863300   1.099201   2.807280   3.827624
     8  H    2.084754   2.598981   1.088940   3.365476   3.643025
     9  H    2.088965   3.315929   1.090297   2.654268   4.177006
    10  H    2.123829   2.863300   2.807280   1.099201   3.093998
    11  H    2.084754   2.598981   3.365476   1.088940   2.356804
    12  H    2.088965   3.315929   2.654268   1.090297   3.604250
                    6          7          8          9         10
     6  H    0.000000
     7  H    3.093998   0.000000
     8  H    2.356804   1.772645   0.000000
     9  H    3.604250   1.775486   1.767960   0.000000
    10  H    3.827624   2.731968   3.805935   3.114971   0.000000
    11  H    3.643025   3.805935   4.151905   3.616780   1.772645
    12  H    4.177006   3.114971   3.616780   2.397794   1.775486
                   11         12
    11  H    0.000000
    12  H    1.767960   0.000000
 Stoichiometry    C3H8N(2)
 Framework group  CS[SG(CN),X(C2H8)]
 Deg. of freedom    16
 Full point group                 CS      NOp   2
 Largest Abelian subgroup         CS      NOp   2
 Largest concise Abelian subgroup CS      NOp   2
                         Standard orientation:                         
 ---------------------------------------------------------------------
 Center     Atomic      Atomic             Coordinates (Angstroms)
 Number     Number       Type             X           Y           Z
 ---------------------------------------------------------------------
      1          7           0        0.174414    0.142535    0.000000
      2          6           0       -0.541685    1.324335    0.000000
      3          6           0        0.174414   -0.637369    1.221203
      4          6           0        0.174414   -0.637369   -1.221203
      5          1           0       -0.573573    1.874966   -0.929345
      6          1           0       -0.573573    1.874966    0.929345
      7          1           0       -0.769450   -1.181798    1.365984
      8          1           0        0.322181    0.020932    2.075952
      9          1           0        0.988970   -1.361764    1.198897
     10          1           0       -0.769450   -1.181798   -1.365984
     11          1           0        0.322181    0.020932   -2.075952
     12          1           0        0.988970   -1.361764   -1.198897
 ---------------------------------------------------------------------
 Rotational constants (GHZ):           9.4629270           8.8963660           4.9375360
 Basis read from rwf:  (5D, 7F)
 There are   143 symmetry adapted cartesian basis functions of A'  symmetry.
 There are   117 symmetry adapted cartesian basis functions of A"  symmetry.
 There are   126 symmetry adapted basis functions of A'  symmetry.
 There are   106 symmetry adapted basis functions of A"  symmetry.
   232 basis functions,   348 primitive gaussians,   260 cartesian basis functions
    17 alpha electrons       16 beta electrons
       nuclear repulsion energy       130.5614466565 Hartrees.
 NAtoms=   12 NActive=   12 NUniq=    7 SFac= 2.94D+00 NAtFMM=   60 NAOKFM=F Big=F
 Integral buffers will be    131072 words long.
 Raffenetti 2 integral format.
 Two-electron integral symmetry is turned on.
 One-electron integrals computed using PRISM.
 NBasis=   232 RedAO= T EigKep=  8.87D-04  NBF=   126   106
 NBsUse=   232 1.00D-06 EigRej= -1.00D+00 NBFU=   126   106
 Initial guess from the checkpoint file:  "/wrk/irikura/Gau-7157.chk"
 B after Tr=    -0.000000    0.000000    0.000000
         Rot=    0.999999    0.000000   -0.000000    0.001220 Ang=   0.14 deg.
 Initial guess orbital symmetries:
 Alpha Orbitals:
       Occupied  (A') (A") (A') (A') (A') (A") (A') (A') (A") (A')
                 (A') (A") (A') (A") (A") (A') (A')
       Virtual   (A') (A") (A') (A') (A") (A') (A') (A") (A") (A')
                 (A') (A") (A") (A') (A') (A") (A') (A") (A') (A')
                 (A") (A') (A') (A") (A') (A") (A") (A') (A") (A')
                 (A') (A") (A') (A") (A') (A") (A') (A") (A') (A')
                 (A") (A") (A') (A') (A") (A') (A") (A') (A") (A")
                 (A') (A") (A') (A') (A") (A') (A") (A") (A') (A')
                 (A') (A") (A') (A") (A') (A') (A") (A') (A') (A')
                 (A") (A") (A') (A") (A') (A") (A') (A") (A') (A")
                 (A") (A') (A') (A") (A') (A") (A') (A') (A") (A')
                 (A') (A") (A') (A") (A') (A") (A") (A") (A') (A')
                 (A') (A") (A") (A') (A') (A") (A') (A") (A') (A")
                 (A') (A') (A") (A") (A') (A") (A') (A") (A') (A")
                 (A') (A") (A') (A') (A") (A') (A") (A') (A") (A')
                 (A") (A") (A") (A') (A') (A') (A") (A") (A') (A")
                 (A') (A") (A') (A') (A") (A") (A') (A") (A') (A')
                 (A") (A') (A') (A') (A") (A") (A') (A") (A') (A')
                 (A") (A") (A") (A') (A') (A") (A') (A") (A') (A")
                 (A') (A") (A') (A') (A') (A") (A") (A') (A') (A')
                 (A') (A") (A") (A") (A') (A') (A") (A') (A") (A')
                 (A") (A") (A') (A") (A') (A") (A') (A') (A") (A")
                 (A') (A") (A') (A') (A") (A') (A") (A") (A') (A')
                 (A") (A") (A') (A") (A')
 Beta  Orbitals:
       Occupied  (A') (A") (A') (A') (A') (A") (A') (A') (A") (A')
                 (A') (A") (A') (A") (A") (A')
       Virtual   (A') (A') (A") (A') (A') (A") (A') (A') (A") (A")
                 (A') (A") (A') (A") (A') (A') (A") (A") (A') (A')
                 (A') (A") (A') (A') (A") (A') (A") (A") (A') (A")
                 (A') (A") (A') (A') (A") (A') (A") (A') (A") (A')
                 (A') (A") (A") (A') (A') (A") (A") (A') (A') (A")
                 (A") (A') (A") (A') (A') (A") (A') (A") (A") (A')
                 (A') (A') (A") (A") (A') (A') (A') (A") (A') (A')
                 (A') (A") (A") (A') (A") (A') (A") (A') (A") (A')
                 (A") (A") (A') (A') (A") (A') (A") (A') (A") (A')
                 (A') (A') (A") (A') (A") (A') (A") (A") (A") (A')
                 (A') (A") (A') (A") (A') (A") (A') (A') (A") (A')
                 (A") (A') (A') (A") (A") (A') (A") (A') (A") (A')
                 (A") (A') (A") (A') (A') (A") (A") (A') (A') (A")
                 (A') (A") (A") (A") (A') (A') (A') (A") (A") (A')
                 (A") (A') (A") (A') (A') (A") (A") (A') (A") (A')
                 (A') (A") (A') (A') (A") (A') (A") (A') (A") (A')
                 (A') (A") (A") (A") (A') (A') (A") (A') (A") (A')
                 (A") (A') (A") (A') (A') (A') (A") (A") (A') (A')
                 (A') (A') (A") (A") (A") (A') (A') (A") (A') (A")
                 (A') (A") (A") (A') (A") (A') (A") (A') (A") (A')
                 (A") (A') (A") (A') (A') (A") (A') (A") (A") (A')
                 (A') (A") (A") (A') (A") (A')
 Initial guess <Sx>= 0.0000 <Sy>= 0.0000 <Sz>= 0.5000 <S**2>= 0.7539 S= 0.5019
 ExpMin= 7.42D-02 ExpMax= 1.02D+04 ExpMxC= 3.47D+02 IAcc=3 IRadAn=         5 AccDes= 0.00D+00
 Harris functional with IExCor=  402 and IRadAn=       5 diagonalized for initial guess.
 HarFok:  IExCor=  402 AccDes= 0.00D+00 IRadAn=         5 IDoV= 1 UseB2=F ITyADJ=14
 ICtDFT=  3500011 ScaDFX=  1.000000  1.000000  1.000000  1.000000
 FoFCou: FMM=F IPFlag=           0 FMFlag=      100000 FMFlg1=           0
         NFxFlg=           0 DoJE=T BraDBF=F KetDBF=T FulRan=T
         wScrn=  0.000000 ICntrl=       500 IOpCl=  0 I1Cent=   200000004 NGrid=           0
         NMat0=    1 NMatS0=      1 NMatT0=    0 NMatD0=    1 NMtDS0=    0 NMtDT0=    0
 Petite list used in FoFCou.
 Keep R1 and R2 ints in memory in symmetry-blocked form, NReq=548058161.
 Requested convergence on RMS density matrix=1.00D-08 within 128 cycles.
 Requested convergence on MAX density matrix=1.00D-06.
 Requested convergence on             energy=1.00D-06.
 No special actions if energy rises.
 Integral accuracy reduced to 1.0D-05 until final iterations.
 Initial convergence to 1.0D-05 achieved.  Increase integral accuracy.
 SCF Done:  E(UB3LYP) =  -173.893975925     A.U. after   11 cycles
            NFock= 11  Conv=0.53D-08     -V/T= 2.0044
 <Sx>= 0.0000 <Sy>= 0.0000 <Sz>= 0.5000 <S**2>= 0.7539 S= 0.5019
 <L.S>=  0.00000000000    
 Annihilation of the first spin contaminant:
 S**2 before annihilation     0.7539,   after     0.7500
 Calling FoFJK, ICntrl=      2127 FMM=F ISym2X=1 I1Cent= 0 IOpClX= 1 NMat=1 NMatS=1 NMatT=0.
 ***** Axes restored to original set *****
 -------------------------------------------------------------------
 Center     Atomic                   Forces (Hartrees/Bohr)
 Number     Number              X              Y              Z
 -------------------------------------------------------------------
      1        7           0.000000000    0.001864100    0.001171542
      2        6           0.000000000   -0.000744863   -0.002086602
      3        6           0.000493775   -0.000372842   -0.000128257
      4        6          -0.000493775   -0.000372842   -0.000128257
      5        1           0.000329872   -0.000443826    0.000571575
      6        1          -0.000329872   -0.000443826    0.000571575
      7        1          -0.000068679    0.000057995    0.000034046
      8        1          -0.000106348    0.000008525   -0.000004216
      9        1          -0.000079792    0.000190529   -0.000015618
     10        1           0.000068679    0.000057995    0.000034046
     11        1           0.000106348    0.000008525   -0.000004216
     12        1           0.000079792    0.000190529   -0.000015618
 -------------------------------------------------------------------
 Cartesian Forces:  Max     0.002086602 RMS     0.000576068

 GradGradGradGradGradGradGradGradGradGradGradGradGradGradGradGradGradGrad
 Berny optimization.
 Using GEDIIS/GDIIS optimizer.
 FormGI is forming the generalized inverse of G from B-inverse, IUseBI=4.
 Internal  Forces:  Max     0.001793817 RMS     0.000336527
 Search for a local minimum.
 Step number   2 out of a maximum of   55
 All quantities printed in internal units (Hartrees-Bohrs-Radians)
 Mixed Optimization -- En-DIIS/RFO-DIIS
 Update second derivatives using D2CorX and points    1    2
 DE= -2.44D-04 DEPred=-2.04D-04 R= 1.20D+00
 TightC=F SS=  1.41D+00  RLast= 7.34D-02 DXNew= 5.0454D-01 2.2010D-01
 Trust test= 1.20D+00 RLast= 7.34D-02 DXMaxT set to 3.00D-01
 ITU=  1  0
 Use linear search instead of GDIIS.
     Eigenvalues ---    0.01036   0.01038   0.01865   0.01871   0.02500
     Eigenvalues ---    0.07331   0.07335   0.07612   0.07646   0.15843
     Eigenvalues ---    0.16000   0.16000   0.16000   0.16000   0.16000
     Eigenvalues ---    0.16000   0.16379   0.20866   0.22106   0.33325
     Eigenvalues ---    0.33585   0.34063   0.34339   0.34339   0.34453
     Eigenvalues ---    0.35466   0.36168   0.38317   0.38825   0.46111
 RFO step:  Lambda=-3.10855993D-05 EMin= 1.03628506D-02
 Quartic linear search produced a step of  0.30418.
 Iteration  1 RMS(Cart)=  0.00439287 RMS(Int)=  0.00013967
 Iteration  2 RMS(Cart)=  0.00006682 RMS(Int)=  0.00012730
 Iteration  3 RMS(Cart)=  0.00000001 RMS(Int)=  0.00012730
 ClnCor:  largest displacement from symmetrization is 2.42D-11 for atom    11.
 Variable       Old X    -DE/DX   Delta X   Delta X   Delta X     New X
                                 (Linear)    (Quad)   (Total)
    R1        2.61128  -0.00179  -0.00264  -0.00284  -0.00548   2.60579
    R2        2.73821   0.00024  -0.00026   0.00102   0.00076   2.73897
    R3        2.73821   0.00024  -0.00026   0.00102   0.00076   2.73897
    R4        2.04221  -0.00058  -0.00214  -0.00048  -0.00262   2.03959
    R5        2.04221  -0.00058  -0.00214  -0.00048  -0.00262   2.03959
    R6        2.07719   0.00001  -0.00233   0.00186  -0.00047   2.07671
    R7        2.05780  -0.00008  -0.00299   0.00202  -0.00097   2.05683
    R8        2.06036  -0.00016  -0.00221   0.00111  -0.00109   2.05927
    R9        2.07719   0.00001  -0.00233   0.00186  -0.00047   2.07671
   R10        2.05780  -0.00008  -0.00299   0.00202  -0.00097   2.05683
   R11        2.06036  -0.00016  -0.00221   0.00111  -0.00109   2.05927
    A1        2.04916   0.00002   0.00051   0.00138   0.00186   2.05102
    A2        2.04916   0.00002   0.00051   0.00138   0.00186   2.05102
    A3        2.00490   0.00003   0.00085   0.00098   0.00181   2.00671
    A4        2.03874   0.00009   0.00393   0.00257   0.00605   2.04479
    A5        2.03874   0.00009   0.00393   0.00257   0.00605   2.04479
[...]
   A16        1.88945  -0.00003   0.00000  -0.00030  -0.00030   1.88915
   A17        1.89303  -0.00003   0.00000  -0.00041  -0.00041   1.89262
   A18        1.89313  -0.00001   0.00000  -0.00018  -0.00018   1.89295
    D1       -3.07276  -0.00000   0.00000  -0.00039  -0.00039  -3.07315
    D2        0.55666  -0.00003   0.00000  -0.00271  -0.00271   0.55395
    D3       -0.55666   0.00003   0.00000   0.00271   0.00271  -0.55395
    D4        3.07276   0.00000   0.00000   0.00039   0.00039   3.07315
    D5        1.33907   0.00002   0.00000   0.00142   0.00142   1.34049
    D6       -0.75949   0.00000   0.00000   0.00128   0.00128  -0.75821
    D7       -2.83773   0.00001   0.00000   0.00127   0.00127  -2.83646
    D8       -1.19290  -0.00000   0.00000  -0.00155  -0.00155  -1.19445
    D9        2.99173  -0.00002   0.00000  -0.00170  -0.00170   2.99003
   D10        0.91348  -0.00001   0.00000  -0.00170  -0.00170   0.91178
   D11       -1.33907  -0.00002   0.00000  -0.00142  -0.00142  -1.34049
   D12        0.75949  -0.00000   0.00000  -0.00128  -0.00128   0.75821
   D13        2.83773  -0.00001   0.00000  -0.00127  -0.00127   2.83646
   D14        1.19290   0.00000   0.00000   0.00155   0.00155   1.19445
   D15       -2.99173   0.00002   0.00000   0.00170   0.00170  -2.99003
   D16       -0.91348   0.00001   0.00000   0.00170   0.00170  -0.91178
         Item               Value     Threshold  Converged?
 Maximum Force            0.000106     0.000450     YES
 RMS     Force            0.000042     0.000300     YES
 Maximum Displacement     0.002741     0.001800     NO 
 RMS     Displacement     0.000806     0.001200     YES
 Predicted change in Energy=-4.278592D-07
                           ----------------------------
                           ! Non-Optimized Parameters !
                           ! (Angstroms and Degrees)  !
 --------------------------                            --------------------------
 ! Name  Definition              Value          Derivative Info.                !
 --------------------------------------------------------------------------------
 ! R1    R(1,2)                  1.3786         -DE/DX =    0.0001              !
 ! R2    R(1,3)                  1.449          -DE/DX =   -0.0001              !
 ! R3    R(1,4)                  1.449          -DE/DX =   -0.0001              !
 ! R4    R(2,5)                  1.079          -DE/DX =    0.0                 !
 ! R5    R(2,6)                  1.079          -DE/DX =    0.0                 !
 ! R6    R(3,7)                  1.0993         -DE/DX =    0.0001              !
 ! R7    R(3,8)                  1.0888         -DE/DX =    0.0001              !
 ! R8    R(3,9)                  1.09           -DE/DX =    0.0                 !
 ! R9    R(4,10)                 1.0993         -DE/DX =    0.0001              !
 ! R10   R(4,11)                 1.0888         -DE/DX =    0.0001              !
 ! R11   R(4,12)                 1.09           -DE/DX =    0.0                 !
 ! A1    A(2,1,3)              117.6135         -DE/DX =    0.0                 !
 ! A2    A(2,1,4)              117.6135         -DE/DX =    0.0                 !
 ! A3    A(3,1,4)              115.0305         -DE/DX =    0.0                 !
 ! A4    A(1,2,5)              117.2179         -DE/DX =   -0.0001              !
 ! A5    A(1,2,6)              117.2179         -DE/DX =   -0.0001              !
 ! A6    A(5,2,6)              119.3556         -DE/DX =    0.0001              !
 ! A7    A(1,3,7)              112.156          -DE/DX =    0.0                 !
 ! A8    A(1,3,8)              109.5986         -DE/DX =    0.0                 !
 ! A9    A(1,3,9)              109.8621         -DE/DX =    0.0                 !
 ! A10   A(7,3,8)              108.2402         -DE/DX =    0.0                 !
 ! A11   A(7,3,9)              108.4391         -DE/DX =    0.0                 !
 ! A12   A(8,3,9)              108.4578         -DE/DX =    0.0                 !
 ! A13   A(1,4,10)             112.156          -DE/DX =    0.0                 !
 ! A14   A(1,4,11)             109.5986         -DE/DX =    0.0                 !
 ! A15   A(1,4,12)             109.8621         -DE/DX =    0.0                 !
 ! A16   A(10,4,11)            108.2402         -DE/DX =    0.0                 !
 ! A17   A(10,4,12)            108.4391         -DE/DX =    0.0                 !
 ! A18   A(11,4,12)            108.4578         -DE/DX =    0.0                 !
 ! D1    D(3,1,2,5)           -176.0786         -DE/DX =    0.0                 !
 ! D2    D(3,1,2,6)             31.7388         -DE/DX =    0.0                 !
 ! D3    D(4,1,2,5)            -31.7388         -DE/DX =    0.0                 !
 ! D4    D(4,1,2,6)            176.0786         -DE/DX =    0.0                 !
 ! D5    D(2,1,3,7)             76.8046         -DE/DX =    0.0                 !
 ! D6    D(2,1,3,8)            -43.4422         -DE/DX =    0.0                 !
 ! D7    D(2,1,3,9)           -162.5174         -DE/DX =    0.0                 !
 ! D8    D(4,1,3,7)            -68.4371         -DE/DX =    0.0                 !
 ! D9    D(4,1,3,8)            171.3162         -DE/DX =    0.0                 !
 ! D10   D(4,1,3,9)             52.2409         -DE/DX =    0.0                 !
 ! D11   D(2,1,4,10)           -76.8046         -DE/DX =    0.0                 !
 ! D12   D(2,1,4,11)            43.4422         -DE/DX =    0.0                 !
 ! D13   D(2,1,4,12)           162.5174         -DE/DX =    0.0                 !
 ! D14   D(3,1,4,10)            68.4371         -DE/DX =    0.0                 !
 ! D15   D(3,1,4,11)          -171.3162         -DE/DX =    0.0                 !
 ! D16   D(3,1,4,12)           -52.2409         -DE/DX =    0.0                 !
 --------------------------------------------------------------------------------
 GradGradGradGradGradGradGradGradGradGradGradGradGradGradGradGradGradGrad


 ----------------------------------------------------------------------

 Electric dipole moment (input orientation):
 (Debye = 10**-18 statcoulomb cm , SI units = C m)
                  (au)            (Debye)         (10**-30 SI)
   Tot        0.503066D+00      0.127866D+01      0.426517D+01
   x          0.000000D+00      0.000000D+00      0.000000D+00
   y         -0.491668D+00     -0.124969D+01     -0.416853D+01
   z         -0.106479D+00     -0.270644D+00     -0.902771D+00

 Dipole polarizability, Alpha (input orientation).
 (esu units = cm**3 , SI units = C**2 m**2 J**-1)
 Alpha(0;0):
               (au)            (10**-24 esu)      (10**-40 SI)
   iso        0.512794D+02      0.759883D+01      0.845483D+01
   aniso      0.117696D+02      0.174408D+01      0.194055D+01
   xx         0.510760D+02      0.756868D+01      0.842129D+01
   yx         0.000000D+00      0.000000D+00      0.000000D+00
   yy         0.578354D+02      0.857033D+01      0.953577D+01
   zx         0.000000D+00      0.000000D+00      0.000000D+00
   zy        -0.211800D+01     -0.313855D+00     -0.349211D+00
   zz         0.449269D+02      0.665747D+01      0.740744D+01

 ----------------------------------------------------------------------

 Dipole orientation:
     7          0.00000000         -0.40170447         -0.01840967
     6          0.00000000         -0.43403316         -2.62329827
     6          2.30980261          0.36086114          1.24036791
     6         -2.30980261          0.36086114          1.24036791
     1         -1.75946748         -0.88345426         -3.55097238
     1          1.75946748         -0.88345426         -3.55097238
     1          2.58814855          2.41853245          1.18542047
     1          3.92120940         -0.53220499          0.32471669
     1          2.26383952         -0.23876001          3.21026680
     1         -2.58814855          2.41853245          1.18542047
     1         -3.92120940         -0.53220499          0.32471669
     1         -2.26383952         -0.23876001          3.21026680

 Electric dipole moment (dipole orientation):
 (Debye = 10**-18 statcoulomb cm , SI units = C m)
                  (au)            (Debye)         (10**-30 SI)
   Tot        0.503066D+00      0.127866D+01      0.426517D+01
   x          0.000000D+00      0.000000D+00      0.000000D+00
   y          0.000000D+00      0.000000D+00      0.000000D+00
   z          0.503066D+00      0.127866D+01      0.426517D+01

 Dipole polarizability, Alpha (dipole orientation).
 (esu units = cm**3 , SI units = C**2 m**2 J**-1)
 Alpha(0;0):
               (au)            (10**-24 esu)      (10**-40 SI)
   iso        0.512794D+02      0.759883D+01      0.845483D+01
   aniso      0.117696D+02      0.174408D+01      0.194055D+01
   xx         0.510760D+02      0.756868D+01      0.842129D+01
   yx         0.000000D+00      0.000000D+00      0.000000D+00
   yy         0.463815D+02      0.687302D+01      0.764727D+01
   zx         0.000000D+00      0.000000D+00      0.000000D+00
   zy         0.459856D+01      0.681437D+00      0.758201D+00
   zz         0.563808D+02      0.835478D+01      0.929594D+01

 ----------------------------------------------------------------------
 1\1\GINC-GAMBA\Freq\UB3LYP\Gen\C3H8N1(2)\IRIKURA\16-Jun-2022\0\\#N Geo
 m=AllCheck Guess=TCheck SCRF=Check GenChk UB3LYP/ChkBas Freq\\dimethyl
 amino methyl, B3LYP/pcseg-2\\0,2\N,0.,0.0545146884,-0.2056946078\C,0.,
 1.4053520255,0.0693493481\C,1.2222949042,-0.6819217413,0.0477039082\C,
 -1.2222949042,-0.6819217413,0.0477039082\H,-0.9310700924,1.9354716544,
 -0.059180361\H,0.9310700924,1.9354716544,-0.059180361\H,1.3695892294,-
 0.8839757678,1.1180606415\H,2.0750146513,-0.1083291592,-0.3116201872\H
 ,1.1979722854,-1.6335678431,-0.4830538716\H,-1.3695892294,-0.883975767
 8,1.1180606415\H,-2.0750146513,-0.1083291592,-0.3116201872\H,-1.197972
 2854,-1.6335678431,-0.4830538716\\Version=ES64L-G16RevB.01\State=2-A'\
 HF=-173.8940134\S2=0.753879\S2-1=0.\S2A=0.750009\RMSD=2.364e-09\RMSF=8
 .215e-05\ZeroPoint=0.1063466\Thermal=0.1120363\Dipole=0.,-0.4916676,-0
 .1064795\DipoleDeriv=-0.5602168,0.,0.,0.,-0.745311,-0.145239,0.,-0.367
 819,-0.4388474,0.0021739,0.,0.,0.,0.3812518,0.2429377,0.,0.0661868,-0.
 334427,0.4190677,-0.2780805,0.065368,-0.198801,0.2932197,-0.035947,0.0
 755853,-0.0085925,0.4132136,0.4190677,0.2780802,-0.065368,0.198801,0.2
 932195,-0.035947,-0.0755853,-0.0085926,0.4132136,-0.0740853,0.0741181,
 -0.0423742,0.0253737,0.0002284,0.0099589,-0.0696555,0.0596721,0.142063
 3,-0.0740853,-0.0741181,0.0423742,-0.0253738,0.0002283,0.0099589,0.069
 6555,0.0596721,0.1420633,-0.0297835,0.0813555,0.0409011,0.0531666,-0.0
 091073,0.002742,-0.1258042,0.1517439,-0.2113835,-0.0806676,-0.0224368,
 0.0383001,-0.103737,0.0050144,0.056335,0.0524541,0.0415992,0.0346611,0
 .0444901,-0.0173178,-0.0321959,0.0489394,-0.1073255,-0.0819383,-0.0110
 326,-0.0936066,0.0080827,-0.0297835,-0.0813555,-0.0409011,-0.0531665,-
 0.0091073,0.002742,0.1258042,0.1517439,-0.2113835,-0.0806676,0.0224368
 ,-0.0383,0.103737,0.0050144,0.056335,-0.0524541,0.0415992,0.0346612,0.
 0444901,0.0173178,0.0321959,-0.0489394,-0.1073253,-0.0819383,0.0110326
 ,-0.0936065,0.0080827\Polar=51.0759773,0.,57.8354273,0.,-2.1179973,44.
 9268582\Quadrupole=1.9230859,-0.0285668,-1.8945191,0.,0.,-0.3442922\PG
 =CS [SG(C1N1),X(C2H8)]\NImag=0\\0.56795690,0.,0.67994507,0.,0.01942832
 ,0.14240475,-0.11098598,0.,0.,0.67879331,0.,-0.34340601,-0.05962897,0.
 ,0.62101496,0.,-0.07320503,-0.02923978,0.,0.03516723,0.05757076,-0.180
 81745,0.04807765,-0.01060135,-0.00211767,0.01023789,-0.00356034,0.5176
 9005,0.04938432,-0.13009318,0.00671012,0.03560452,-0.02727784,0.007669
 29,0.05737945,0.57740644,-0.03089000,0.02302558,-0.06313057,0.00867927
 ,-0.01077084,-0.00211516,-0.02653842,0.01788771,0.53005950,-0.18081745
 ,-0.04807765,0.01060134,-0.00211767,-0.01023789,0.00356034,-0.03796496
 ,-0.01287954,0.00834108,0.51769005,-0.04938432,-0.13009319,0.00671011,
 -0.03560452,-0.02727784,0.00766929,0.01287954,0.01120706,-0.00277271,-
 0.05737945,0.57740644,0.03088999,0.02302558,-0.06313057,-0.00867927,-0
 .01077084,-0.00211516,-0.00834108,-0.00277271,-0.00208912,0.02653842,0
 .01788771,0.53005950,0.00150951,-0.00261031,-0.00135043,-0.27762402,0.
 12284802,-0.02695957,0.00097478,-0.00062843,-0.00006415,0.00102897,-0.
 00136182,0.00075054,0.28499103,0.02961691,-0.01700526,0.00533762,0.112
 54152,-0.11827376,0.01154865,-0.00269449,-0.00460444,-0.00162791,0.002
 98433,0.00108684,0.00016008,-0.13068152,0.12958951,0.00917749,-0.00376
 399,0.00114891,-0.04553384,0.02041622,-0.01462966,-0.00011911,-0.00030
 481,0.00264184,-0.00099516,-0.00070320,-0.00090616,0.03275663,-0.01375
 751,0.01219398,0.00150951,0.00261031,0.00135043,-0.27762402,-0.1228480
 2,0.02695957,0.00102897,0.00136182,-0.00075054,0.00097478,0.00062843,0
 .00006415,-0.01267670,-0.01224861,0.00468081,0.28499103,-0.02961691,-0
 .01700526,0.00533762,-0.11254152,-0.11827376,0.01154865,-0.00298433,0.
 00108684,0.00016008,0.00269449,-0.00460444,-0.00162791,0.01224861,0.00
 974337,-0.00177614,0.13068152,0.12958951,-0.00917749,-0.00376399,0.001
 14891,0.04553384,0.02041622,-0.01462966,0.00099516,-0.00070320,-0.0009
 0616,0.00011911,-0.00030481,0.00264184,-0.00468081,-0.00177614,0.00021
 261,-0.03275663,-0.01375751,0.01219398,-0.01515227,0.01378699,-0.03155
 081,0.00040051,-0.00315468,0.00002689,-0.05029556,0.00165376,-0.019698
 57,0.00372005,0.00167972,-0.00299973,0.00004444,0.00020801,0.00023728,
 -0.00011102,0.00024410,-0.00015253,0.05725006,0.01061850,-0.00925336,0
 .01952375,-0.00022481,0.00439483,0.00084791,0.00115694,-0.05522582,0.0
 3513056,-0.00112584,-0.00024982,-0.00011633,0.00005905,-0.00016256,-0.
 00068079,-0.00004036,-0.00013362,0.00060413,-0.00988268,0.05710577,-0.
 01198910,0.00497694,-0.00159211,0.00073041,0.00101915,0.00215014,-0.01
 770520,0.03590973,-0.27402963,0.00126061,0.00055943,0.00109939,-0.0000
 6227,0.00019394,-0.00045379,0.00007956,0.00013676,-0.00072486,0.029908
 84,-0.04500355,0.29969062,-0.03060212,-0.01421755,0.00722431,0.0006826
 4,-0.00278339,-0.00023171,-0.20049739,-0.10577568,0.06675799,-0.002907
 77,0.00487675,-0.00048327,0.00049871,0.00013054,-0.00030417,0.00061947
 ,0.00091876,0.00009529,0.00371603,0.00135848,-0.00015408,0.22875207,0.
 01679313,0.00880236,-0.00680725,0.00158527,0.00150808,-0.00039010,-0.1
 1490943,-0.12937018,0.04925597,0.00248808,-0.00185580,0.00013972,0.000
 02782,0.00031922,-0.00000353,-0.00001754,-0.00008059,0.00024670,-0.003
 33247,-0.00238765,0.00103449,0.11678523,0.13481231,-0.00704152,-0.0049
 0889,0.00234397,0.00049537,0.00005313,-0.00026461,0.07113114,0.0494029
 3,-0.07816532,-0.00125413,0.00022175,0.00031141,-0.00021377,-0.0001972
 0,-0.00005083,0.00011254,-0.00031173,0.00040625,0.02424043,0.01792095,
 -0.01051092,-0.07291090,-0.05436565,0.07924902,-0.00342313,0.03206714,
 0.01314971,-0.00524511,0.00025402,0.00015396,-0.05068211,-0.01721324,-
 0.00833183,0.00186906,0.00233051,0.00098784,0.00034984,0.00147166,-0.0
 0014363,0.00039499,0.00016549,-0.00018646,0.00045444,-0.00271041,-0.00
 020332,0.00074774,-0.02017831,-0.01359462,0.05557370,0.00312695,-0.020
 72008,-0.00466392,0.00380714,0.00084423,-0.00065685,-0.00971518,-0.241
 41726,-0.11070094,-0.00193420,0.00039402,0.00038912,0.00013681,-0.0007
 8632,-0.00014495,0.00009612,0.00030761,-0.00013212,-0.00057588,0.00560
 312,0.00193762,-0.00055729,-0.01284458,-0.00812811,0.00480762,0.267547
 30,0.00052868,0.00755871,0.00464732,-0.00082567,0.00151321,0.00069379,
 -0.00538357,-0.11450417,-0.11375589,-0.00012925,-0.00007608,0.00007972
 ,-0.00012246,0.00034300,0.00034691,-0.00013841,-0.00004956,-0.00018521
 ,-0.00231963,-0.02750466,-0.01550618,-0.00059183,0.01046232,0.00603637
 ,0.00861334,0.12211385,0.11770253,-0.01515227,-0.01378699,0.03155081,0
 .00040051,0.00315468,-0.00002689,0.00372005,-0.00167972,0.00299973,-0.
 05029556,-0.00165376,0.01969857,-0.00011102,-0.00024410,0.00015253,0.0
 0004444,-0.00020801,-0.00023728,0.00036417,0.00036456,-0.00167287,-0.0
 0008364,0.00011965,-0.00057795,-0.00030721,0.00014268,-0.00005700,0.05
 725006,-0.01061850,-0.00925336,0.01952375,0.00022481,0.00439483,0.0008
 4791,0.00112584,-0.00024982,-0.00011633,-0.00115694,-0.05522582,0.0351
 3056,0.00004036,-0.00013362,0.00060413,-0.00005905,-0.00016256,-0.0006
 8079,-0.00036456,0.00028183,-0.00045026,-0.00008096,0.00001248,-0.0000
 5028,-0.00034560,0.00001480,-0.00022142,0.00988268,0.05710577,0.011989
 10,0.00497694,-0.00159211,-0.00073041,0.00101915,0.00215014,-0.0012606
 1,0.00055943,0.00109939,0.01770520,0.03590973,-0.27402963,-0.00007956,
 0.00013676,-0.00072486,0.00006227,0.00019394,-0.00045379,0.00167287,-0
 .00045026,0.00001880,0.00025511,0.00005218,0.00021207,-0.00006252,-0.0
 0036644,-0.00035353,-0.02990884,-0.04500355,0.29969062,-0.03060212,0.0
 1421756,-0.00722431,0.00068264,0.00278339,0.00023171,-0.00290777,-0.00
 487675,0.00048327,-0.20049739,0.10577568,-0.06675799,0.00061947,-0.000
 91876,-0.00009529,0.00049871,-0.00013054,0.00030417,-0.00008364,0.0000
 8096,-0.00025511,-0.00128136,0.00070924,-0.00043645,0.00035563,-0.0000
 5435,0.00009320,0.00371603,-0.00135848,0.00015408,0.22875207,-0.016793
 13,0.00880236,-0.00680725,-0.00158527,0.00150808,-0.00039010,-0.002488
 08,-0.00185580,0.00013972,0.11490943,-0.12937018,0.04925597,0.00001754
 ,-0.00008059,0.00024670,-0.00002782,0.00031922,-0.00000353,-0.00011965
 ,0.00001248,0.00005218,-0.00070924,0.00067027,0.00002781,0.00007068,0.
 00041406,0.00034734,0.00333247,-0.00238765,0.00103449,-0.11678523,0.13
 481231,0.00704152,-0.00490889,0.00234397,-0.00049537,0.00005313,-0.000
 26461,0.00125413,0.00022175,0.00031141,-0.07113114,0.04940293,-0.07816
 532,-0.00011254,-0.00031173,0.00040625,0.00021377,-0.00019720,-0.00005
 083,0.00057795,-0.00005028,0.00021207,0.00043645,0.00002781,0.00039169
 ,-0.00004986,0.00033529,0.00004089,-0.02424043,0.01792095,-0.01051092,
 0.07291090,-0.05436565,0.07924902,-0.00342313,-0.03206714,-0.01314971,
 -0.00524511,-0.00025402,-0.00015396,0.00186906,-0.00233051,-0.00098784
 ,-0.05068211,0.01721324,0.00833183,0.00039499,-0.00016549,0.00018646,0
 .00034984,-0.00147166,0.00014363,-0.00030721,0.00034560,0.00006252,0.0
 0035563,-0.00007068,0.00004986,-0.00008785,0.00071958,0.00033260,0.000
 45444,0.00271041,0.00020332,0.00074774,0.02017831,0.01359462,0.0555737
 0,-0.00312695,-0.02072008,-0.00466391,-0.00380714,0.00084422,-0.000656
 85,0.00193420,0.00039402,0.00038912,0.00971518,-0.24141726,-0.11070094
 ,-0.00009612,0.00030761,-0.00013212,-0.00013681,-0.00078632,-0.0001449
 5,-0.00014268,0.00001480,-0.00036644,0.00005435,0.00041406,0.00033529,
 -0.00071958,0.00064311,0.00001745,0.00057588,0.00560312,0.00193762,0.0
 0055729,-0.01284458,-0.00812811,-0.00480762,0.26754730,-0.00052868,0.0
 0755871,0.00464732,0.00082567,0.00151321,0.00069379,0.00012925,-0.0000
 7608,0.00007972,0.00538357,-0.11450417,-0.11375589,0.00013841,-0.00004
 956,-0.00018521,0.00012246,0.00034300,0.00034691,0.00005700,-0.0002214
 2,-0.00035353,-0.00009320,0.00034734,0.00004089,-0.00033260,0.00001745
 ,0.00025330,0.00231963,-0.02750466,-0.01550618,0.00059183,0.01046232,0
 .00603637,-0.00861334,0.12211385,0.11770253\\0.,0.00019466,-0.00009292
 ,0.,-0.00020125,0.00005180,0.00018592,-0.00012642,0.00006357,-0.000185
 92,-0.00012642,0.00006357,0.00004194,0.00006861,-0.00001518,-0.0000419
 4,0.00006861,-0.00001518,-0.00003956,0.00003531,-0.00005670,-0.0000786
 7,-0.00002147,0.00001569,-0.00000171,0.00004727,0.00001319,0.00003956,
 0.00003531,-0.00005670,0.00007867,-0.00002147,0.00001569,0.00000171,0.
 00004727,0.00001319\\\@


 NEVER LISTEN TO CRITICISM
 OR YOU'LL BE DOIN' EVERYBODY ELSE'S THING BUT BUT YOUR OWN.

                                               -- ANDY CAPP
 Job cpu time:       0 days  0 hours 29 minutes 32.6 seconds.
 Elapsed time:       0 days  0 hours  2 minutes 28.0 seconds.
 File lengths (MBytes):  RWF=     72 Int=      0 D2E=      0 Chk=      7 Scr=      1
 Normal termination of Gaussian 16 at Thu Jun 16 14:17:13 2022.
