 Entering Gaussian System, Link 0=g16
 AtFile(1): pcseg2.gbs
            -H     0
            S   4   1.00
                  0.754732D+02           0.427821D-02
                  0.113575D+02           0.328672D-01
                  0.260081D+01           0.159578D+00
                  0.735503D+00           0.500000D+00
            S   1   1.00
                  0.231761D+00           1.0000000
            S   1   1.00
                  0.741675D-01           1.0000000
            P   1   1.00
                  0.160000D+01           1.0000000
            P   1   1.00
                  0.450000D+00           1.0000000
            D   1   1.00
                  0.125000D+01           1.0000000
            ****
            -C     0
            S   7   1.00
                  0.731999D+04           0.695369D-03
                  0.109818D+04           0.537138D-02
                  0.250014D+03           0.274734D-01
                  0.707586D+02           0.105078D+00
                  0.228595D+02           0.291262D+00
                  0.803936D+01           0.500000D+00
                  0.289309D+01           0.362224D+00
            S   2   1.00
                  0.521640D+01          -0.957844D-01
                  0.556124D+00           0.500000D+00
            S   1   1.00
                  0.228813D+00           1.0000000
            S   1   1.00
                  0.936338D-01           1.0000000
            P   4   1.00
                  0.339855D+02           0.818395D-02
                  0.772957D+01           0.586921D-01
                  0.224954D+01           0.222514D+00
                  0.767681D+00           0.500000D+00
            P   1   1.00
                  0.263283D+00           1.0000000
            P   1   1.00
                  0.848744D-01           1.0000000
            D   1   1.00
                  0.140000D+01           1.0000000
            D   1   1.00
                  0.450000D+00           1.0000000
            F   1   1.00
                  0.950000D+00           1.0000000
            ****
            -O     0
            S   7   1.00
                  0.135887D+05           0.665492D-03
                  0.203847D+04           0.514222D-02
                  0.464041D+03           0.263472D-01
                  0.131339D+03           0.101500D+00
                  0.425340D+02           0.285877D+00
                  0.150429D+02           0.500000D+00
                  0.546616D+01           0.368211D+00
            S   2   1.00
                  0.100915D+02          -0.100084D+00
                  0.110429D+01           0.500000D+00
            S   1   1.00
                  0.448082D+00           1.0000000
            S   1   1.00
                  0.175325D+00           1.0000000
            P   4   1.00
                  0.608220D+02           0.908253D-02
                  0.140332D+02           0.645878D-01
                  0.418244D+01           0.241502D+00
                  0.142490D+01           0.500000D+00
            P   1   1.00
                  0.478741D+00           1.0000000
            P   1   1.00
                  0.146257D+00           1.0000000
            D   1   1.00
                  0.220000D+01           1.0000000
            D   1   1.00
                  0.650000D+00           1.0000000
            F   1   1.00
                  0.110000D+01           1.0000000
            ****
            -N     0
            S   7   1.00
                  0.101643D+05           0.682757D-03
                  0.152481D+04           0.527488D-02
                  0.347119D+03           0.270037D-01
                  0.982389D+02           0.103673D+00
                  0.317799D+02           0.289575D+00
                  0.112240D+02           0.500000D+00
                  0.406611D+01           0.364621D+00
            S   2   1.00
                  0.747898D+01          -0.975681D-01
                  0.805040D+00           0.500000D+00
            S   1   1.00
                  0.324626D+00           1.0000000
            S   1   1.00
                  0.128132D+00           1.0000000
            P   4   1.00
                  0.482704D+02           0.829547D-02
                  0.110815D+02           0.596223D-01
                  0.326643D+01           0.227889D+00
                  0.111680D+01           0.500000D+00
            P   1   1.00
                  0.382049D+00           1.0000000
            P   1   1.00
                  0.121222D+00           1.0000000
            D   1   1.00
                  0.180000D+01           1.0000000
            D   1   1.00
                  0.550000D+00           1.0000000
            F   1   1.00
                  0.102000D+01           1.0000000
            ****
            -F     0
            S   7   1.00
                  0.174507D+05           0.655972D-03
                  0.261768D+04           0.506944D-02
                  0.595857D+03           0.259899D-01
                  0.168651D+03           0.100353D+00
                  0.546654D+02           0.284095D+00
                  0.193717D+02           0.500000D+00
                  0.706202D+01           0.370721D+00
            S   2   1.00
                  0.131197D+02          -0.101997D+00
                  0.145046D+01           0.500000D+00
            S   1   1.00
                  0.588255D+00           1.0000000
            S   1   1.00
                  0.227960D+00           1.0000000
            P   4   1.00
                  0.779407D+02           0.931135D-02
                  0.180425D+02           0.663964D-01
                  0.542342D+01           0.246386D+00
                  0.184876D+01           0.500000D+00
            P   1   1.00
                  0.617455D+00           1.0000000
            P   1   1.00
                  0.185496D+00           1.0000000
            D   1   1.00
                  0.280000D+01           1.0000000
            D   1   1.00
                  0.800000D+00           1.0000000
            F   1   1.00
                  0.120000D+01           1.0000000
            ****
            -Cl     0
            S   8   1.00
                  0.154272D+06           0.222473D-03
                  0.231232D+05           0.172590D-02
                  0.526257D+04           0.899286D-02
                  0.148995D+04           0.367724D-01
                  0.485417D+03           0.121446D+00
                  0.174634D+03           0.304148D+00
                  0.672393D+02           0.500000D+00
                  0.265780D+02           0.360252D+00
            S   3   1.00
                  0.131826D+03          -0.531330D-01
                  0.400703D+02          -0.233346D+00
                  0.789448D+01           0.500000D+00
            S   2   1.00
                  0.427711D+01           0.500000D+00
                  0.196233D+01           0.370517D+00
            S   1   1.00
                  0.520793D+00           1.0000000
            S   1   1.00
                  0.181633D+00           1.0000000
            P   7   1.00
                  0.124440D+04           0.988206D-03
                  0.295109D+03           0.829674D-02
                  0.947224D+02           0.430906D-01
                  0.352588D+02           0.148443D+00
                  0.144211D+02           0.344744D+00
                  0.610371D+01           0.500000D+00
                  0.258886D+01           0.348278D+00
            P   2   1.00
                  0.109447D+02          -0.196768D-01
                  0.104413D+01           0.500000D+00
            P   1   1.00
                  0.376184D+00           1.0000000
            P   1   1.00
                  0.120613D+00           1.0000000
            D   1   1.00
                  0.231000D+01           1.0000000
            D   1   1.00
                  0.520000D+00           1.0000000
            F   1   1.00
                  0.720000D+00           1.0000000
            ****
            -S     0
            S   8   1.00
                  0.134700D+06           0.226231D-03
                  0.201904D+05           0.175488D-02
                  0.459528D+04           0.914190D-02
                  0.130109D+04           0.373551D-01
                  0.423902D+03           0.123121D+00
                  0.152485D+03           0.306801D+00
                  0.586925D+02           0.500000D+00
                  0.231461D+02           0.354358D+00
            S   3   1.00
                  0.116327D+03          -0.491772D-01
                  0.352841D+02          -0.215962D+00
                  0.677831D+01           0.500000D+00
            S   2   1.00
                  0.360404D+01           0.500000D+00
                  0.164871D+01           0.366278D+00
            S   1   1.00
                  0.421821D+00           1.0000000
            S   1   1.00
                  0.147554D+00           1.0000000
            P   7   1.00
                  0.104863D+04           0.105273D-02
                  0.248717D+03           0.879338D-02
                  0.797887D+02           0.453358D-01
                  0.296023D+02           0.154476D+00
                  0.120627D+02           0.352366D+00
                  0.507628D+01           0.500000D+00
                  0.213375D+01           0.346429D+00
            P   2   1.00
                  0.928958D+01          -0.185932D-01
                  0.837819D+00           0.500000D+00
            P   1   1.00
                  0.301495D+00           1.0000000
            P   1   1.00
                  0.974740D-01           1.0000000
            D   1   1.00
                  0.210000D+01           1.0000000
            D   1   1.00
                  0.480000D+00           1.0000000
            F   1   1.00
                  0.660000D+00           1.0000000
            ****
            -Br     0
            S    10   1.00
                  0.233625D+07           0.532336D-04
                  0.349961D+06           0.413715D-03
                  0.796444D+05           0.217123D-02
                  0.225555D+05           0.910109D-02
                  0.735546D+04           0.323789D-01
                  0.265352D+04           0.988755D-01
                  0.103517D+04           0.248138D+00
                  0.422205D+03           0.474328D+00
                  0.180035D+03           0.500000D+00
                  0.793308D+02           0.187769D+00
            S    4   1.00
                  0.620834D+03          -0.226511D-01
                  0.190829D+03          -0.109497D+00
                  0.312505D+02           0.500000D+00
                  0.135270D+02           0.492812D+00
            S    2   1.00
                  0.216097D+02          -0.165418D+00
                  0.372566D+01           0.500000D+00
            S    1   1.00
                  0.169770D+01           1.0000000
            S    1   1.00
                  0.489332D+00           1.0000000
            S    1   1.00
                  0.175712D+00           1.0000000
            P    8   1.00
                  0.960829D+04           0.478974D-03
                  0.227618D+04           0.417853D-02
                  0.736723D+03           0.229315D-01
                  0.281579D+03           0.892653D-01
                  0.118395D+03           0.255288D+00
                  0.527481D+02           0.479074D+00
                  0.245098D+02           0.500000D+00
                  0.112009D+02           0.200944D+00
            P    4   1.00
                  0.587849D+02          -0.189674D-01
                  0.918962D+01           0.264104D+00
                  0.413895D+01           0.500000D+00
                  0.184225D+01           0.319316D+00
            P    1   1.00
                  0.713862D+00           1.0000000
            P    1   1.00
                  0.274232D+00           1.0000000
            P    1   1.00
                  0.944411D-01           1.0000000
            D    7   1.00
                  0.398470D+03           0.204066D-02
                  0.118967D+03           0.175171D-01
                  0.450197D+02           0.829708D-01
                  0.190320D+02           0.236284D+00
                  0.855686D+01           0.428468D+00
                  0.382950D+01           0.500000D+00
                  0.166291D+01           0.349360D+00
            D    1   1.00
                  0.672953D+00           1.0000000
            D    1   1.00
                  0.252000D+00           1.0000000
            F    1   1.00
                  0.530000D+00           1.0000000
            ****
            -Si     0
            S    8   1.00
                  0.996133D+05           0.235546D-03
                  0.149311D+05           0.182707D-02
                  0.339820D+04           0.951425D-02
                  0.962140D+03           0.388172D-01
                  0.313430D+03           0.127328D+00
                  0.112683D+03           0.313522D+00
                  0.433372D+02           0.500000D+00
                  0.170029D+02           0.340347D+00
            S    3   1.00
                  0.884208D+02          -0.404451D-01
                  0.266756D+02          -0.178059D+00
                  0.479640D+01           0.500000D+00
            S    2   1.00
                  0.239385D+01           0.500000D+00
                  0.108333D+01           0.338016D+00
            S    1   1.00
                  0.252420D+00           1.0000000
            S    1   1.00
                  0.891210D-01           1.0000000
            P    7   1.00
                  0.709901D+03           0.123028D-02
                  0.168426D+03           0.101366D-01
                  0.539946D+02           0.511840D-01
                  0.198646D+02           0.169967D+00
                  0.801369D+01           0.370717D+00
                  0.331870D+01           0.500000D+00
                  0.136112D+01           0.344128D+00
            P    2   1.00
                  0.622158D+01          -0.166609D-01
                  0.503049D+00           0.500000D+00
            P    1   1.00
                  0.179848D+00           1.0000000
            P    1   1.00
                  0.591912D-01           1.0000000
            D    1   1.00
                  0.168000D+01           1.0000000
            D    1   1.00
                  0.380000D+00           1.0000000
            F    1   1.00
                  0.540000D+00           1.0000000
            ****
            -P     0
            S    8   1.00
                  0.116416D+06           0.230715D-03
                  0.174500D+05           0.178960D-02
                  0.397149D+04           0.932116D-02
                  0.112447D+04           0.380591D-01
                  0.366347D+03           0.125148D+00
                  0.131757D+03           0.310022D+00
                  0.506988D+02           0.500000D+00
                  0.199436D+02           0.347528D+00
            S    3   1.00
                  0.101878D+03          -0.446755D-01
                  0.308249D+02          -0.196376D+00
                  0.573688D+01           0.500000D+00
            S    2   1.00
                  0.296868D+01           0.500000D+00
                  0.135315D+01           0.355098D+00
            S    1   1.00
                  0.332196D+00           1.0000000
            S    1   1.00
                  0.116229D+00           1.0000000
            P    7   1.00
                  0.873928D+03           0.112375D-02
                  0.207298D+03           0.933330D-02
                  0.664628D+02           0.477213D-01
                  0.245665D+02           0.160733D+00
                  0.996820D+01           0.359760D+00
                  0.416536D+01           0.500000D+00
                  0.173022D+01           0.346593D+00
            P    2   1.00
                  0.772530D+01          -0.175718D-01
                  0.657252D+00           0.500000D+00
            P    1   1.00
                  0.239903D+00           1.0000000
            P    1   1.00
                  0.800988D-01           1.0000000
            D    1   1.00
                  0.189000D+01           1.0000000
            D    1   1.00
                  0.430000D+00           1.0000000
            F    1   1.00
                  0.600000D+00           1.0000000
            ****
            
 Initial command:
 /usr/local/apps/g16_b01_avx/g16/l1.exe "/wrk/irikura/Gau-360949.inp" -scrdir="/wrk/irikura/"
 Entering Link 1 = /usr/local/apps/g16_b01_avx/g16/l1.exe PID=    360951.
  
 Copyright (c) 1988-2017, Gaussian, Inc.  All Rights Reserved.
  
 This is part of the Gaussian(R) 16 program.  It is based on
 the Gaussian(R) 09 system (copyright 2009, Gaussian, Inc.),
 the Gaussian(R) 03 system (copyright 2003, Gaussian, Inc.),
 the Gaussian(R) 98 system (copyright 1998, Gaussian, Inc.),
 the Gaussian(R) 94 system (copyright 1995, Gaussian, Inc.),
 the Gaussian 92(TM) system (copyright 1992, Gaussian, Inc.),
 the Gaussian 90(TM) system (copyright 1990, Gaussian, Inc.),
 the Gaussian 88(TM) system (copyright 1988, Gaussian, Inc.),
 the Gaussian 86(TM) system (copyright 1986, Carnegie Mellon
 University), and the Gaussian 82(TM) system (copyright 1983,
 Carnegie Mellon University). Gaussian is a federally registered
 trademark of Gaussian, Inc.
  
 This software contains proprietary and confidential information,
 including trade secrets, belonging to Gaussian, Inc.
  
 This software is provided under written license and may be
 used, copied, transmitted, or stored only in accord with that
 written license.
  
 The following legend is applicable only to US Government
 contracts under FAR:
  
                    RESTRICTED RIGHTS LEGEND
  
 Use, reproduction and disclosure by the US Government is
 subject to restrictions as set forth in subparagraphs (a)
 and (c) of the Commercial Computer Software - Restricted
 Rights clause in FAR 52.227-19.
  
 Gaussian, Inc.
 340 Quinnipiac St., Bldg. 40, Wallingford CT 06492
  
  
 ---------------------------------------------------------------
 Warning -- This program may not be used in any manner that
 competes with the business of Gaussian, Inc. or will provide
 assistance to any competitor of Gaussian, Inc.  The licensee
 of this program is prohibited from giving any competitor of
 Gaussian, Inc. access to this program.  By using this program,
 the user acknowledges that Gaussian, Inc. is engaged in the
 business of creating and licensing software in the field of
 computational chemistry and represents and warrants to the
 licensee that it is not a competitor of Gaussian, Inc. and that
 it will not use this program in any manner prohibited above.
 ---------------------------------------------------------------
  

 Cite this work as:
 Gaussian 16, Revision B.01,
 M. J. Frisch, G. W. Trucks, H. B. Schlegel, G. E. Scuseria, 
 M. A. Robb, J. R. Cheeseman, G. Scalmani, V. Barone, 
 G. A. Petersson, H. Nakatsuji, X. Li, M. Caricato, A. V. Marenich, 
 J. Bloino, B. G. Janesko, R. Gomperts, B. Mennucci, H. P. Hratchian, 
 J. V. Ortiz, A. F. Izmaylov, J. L. Sonnenberg, D. Williams-Young, 
 F. Ding, F. Lipparini, F. Egidi, J. Goings, B. Peng, A. Petrone, 
 T. Henderson, D. Ranasinghe, V. G. Zakrzewski, J. Gao, N. Rega, 
 G. Zheng, W. Liang, M. Hada, M. Ehara, K. Toyota, R. Fukuda, 
 J. Hasegawa, M. Ishida, T. Nakajima, Y. Honda, O. Kitao, H. Nakai, 
 T. Vreven, K. Throssell, J. A. Montgomery, Jr., J. E. Peralta, 
 F. Ogliaro, M. J. Bearpark, J. J. Heyd, E. N. Brothers, K. N. Kudin, 
 V. N. Staroverov, T. A. Keith, R. Kobayashi, J. Normand, 
 K. Raghavachari, A. P. Rendell, J. C. Burant, S. S. Iyengar, 
 J. Tomasi, M. Cossi, J. M. Millam, M. Klene, C. Adamo, R. Cammi, 
 J. W. Ochterski, R. L. Martin, K. Morokuma, O. Farkas, 
 J. B. Foresman, and D. J. Fox, Gaussian, Inc., Wallingford CT, 2016.
 
 ******************************************
 Gaussian 16:  ES64L-G16RevB.01 20-Dec-2017
                29-Sep-2023 
 ******************************************
 %chk=mec4h.chk
 %mem=500mw
 %nprocs=4
 Will use up to    4 processors via shared memory.
 ---------------------------------------
 # b3lyp/gen opt freq CPHF(Grid=OneStep)
 ---------------------------------------
 1/18=20,19=15,26=3,38=1/1,3;
 2/9=110,12=2,17=6,18=5,40=1/2;
 3/5=7,11=2,25=1,30=1,71=1,74=-5/1,2,3;
 4//1;
 5/5=2,38=5/2;
 6/7=2,8=2,9=2,10=2,28=1/1;
 7//1,2,3,16;
 1/18=20,19=15,26=3/3(2);
 2/9=110/2;
 99//99;
 2/9=110/2;
 3/5=7,6=1,11=2,25=1,30=1,71=1,74=-5,82=7/1,2,3;
 4/5=5,16=3,69=1/1;
 5/5=2,38=5/2;
 7//1,2,3,16;
 1/18=20,19=15,26=3/3(-5);
 2/9=110/2;
 6/7=2,8=2,9=2,10=2,19=2,28=1/1;
 99/9=1/99;
 -----------------------------
 1,3-pentadiyne, B3LYP/pcseg-2
 -----------------------------
 Symbolic Z-matrix:
 Charge =  0 Multiplicity = 1
 C                     0.        0.        2.71881 
 C                     0.        0.        1.51345 
 C                     0.        0.        0.15017 
 C                     0.        0.       -1.0567 
 C                     0.        0.       -2.50679 
 H                     0.        0.        3.77982 
 H                     0.        1.01907  -2.8978 
 H                     0.88254  -0.50954  -2.8978 
 H                    -0.88254  -0.50954  -2.8978 
 

 GradGradGradGradGradGradGradGradGradGradGradGradGradGradGradGradGradGrad
 Berny optimization.
 Initialization pass.
                           ----------------------------
                           !    Initial Parameters    !
                           ! (Angstroms and Degrees)  !
 --------------------------                            --------------------------
 ! Name  Definition              Value          Derivative Info.                !
 --------------------------------------------------------------------------------
 ! R1    R(1,2)                  1.2054         estimate D2E/DX2                !
 ! R2    R(1,6)                  1.061          estimate D2E/DX2                !
 ! R3    R(2,3)                  1.3633         estimate D2E/DX2                !
 ! R4    R(3,4)                  1.2069         estimate D2E/DX2                !
 ! R5    R(4,5)                  1.4501         estimate D2E/DX2                !
 ! R6    R(5,7)                  1.0915         estimate D2E/DX2                !
 ! R7    R(5,8)                  1.0915         estimate D2E/DX2                !
 ! R8    R(5,9)                  1.0915         estimate D2E/DX2                !
 ! A1    A(4,5,7)              110.9914         estimate D2E/DX2                !
 ! A2    A(4,5,8)              110.9914         estimate D2E/DX2                !
 ! A3    A(4,5,9)              110.9914         estimate D2E/DX2                !
 ! A4    A(7,5,8)              107.9092         estimate D2E/DX2                !
 ! A5    A(7,5,9)              107.9092         estimate D2E/DX2                !
 ! A6    A(8,5,9)              107.9092         estimate D2E/DX2                !
 ! A7    L(2,1,6,7,-1)         180.0            estimate D2E/DX2                !
 ! A8    L(1,2,3,7,-1)         180.0            estimate D2E/DX2                !
 ! A9    L(2,3,4,7,-1)         180.0            estimate D2E/DX2                !
 ! A10   L(3,4,5,7,-1)         180.0            estimate D2E/DX2                !
 ! A11   L(2,1,6,7,-2)         180.0            estimate D2E/DX2                !
 ! A12   L(1,2,3,7,-2)         180.0            estimate D2E/DX2                !
 ! A13   L(2,3,4,7,-2)         180.0            estimate D2E/DX2                !
 ! A14   L(3,4,5,7,-2)         180.0            estimate D2E/DX2                !
 ! D1    D(7,5,9,8)            116.3633         estimate D2E/DX2                !
 --------------------------------------------------------------------------------
 Trust Radius=3.00D-01 FncErr=1.00D-07 GrdErr=1.00D-06 EigMax=2.50D+02 EigMin=1.00D-04
 Number of steps in this run=     33 maximum allowed number of steps=    100.
 GradGradGradGradGradGradGradGradGradGradGradGradGradGradGradGradGradGrad

                          Input orientation:                          
 ---------------------------------------------------------------------
 Center     Atomic      Atomic             Coordinates (Angstroms)
 Number     Number       Type             X           Y           Z
 ---------------------------------------------------------------------
      1          6           0        0.000000    0.000000    2.718814
      2          6           0        0.000000    0.000000    1.513447
      3          6           0        0.000000    0.000000    0.150166
      4          6           0        0.000000    0.000000   -1.056703
      5          6           0        0.000000    0.000000   -2.506792
      6          1           0        0.000000    0.000000    3.779818
      7          1           0        0.000000    1.019074   -2.897803
      8          1           0        0.882544   -0.509537   -2.897803
      9          1           0       -0.882544   -0.509537   -2.897803
 ---------------------------------------------------------------------
                    Distance matrix (angstroms):
                    1          2          3          4          5
     1  C    0.000000
     2  C    1.205367   0.000000
     3  C    2.568648   1.363281   0.000000
     4  C    3.775517   2.570150   1.206869   0.000000
     5  C    5.225606   4.020239   2.656958   1.450089   0.000000
     6  H    1.061004   2.266371   3.629652   4.836521   6.286610
     7  H    5.708318   4.527432   3.213818   2.104320   1.091513
     8  H    5.708318   4.527432   3.213818   2.104320   1.091513
     9  H    5.708318   4.527432   3.213818   2.104320   1.091513
                    6          7          8          9
     6  H    0.000000
     7  H    6.754934   0.000000
     8  H    6.754934   1.765088   0.000000
     9  H    6.754934   1.765088   1.765088   0.000000
 Stoichiometry    C5H4
 Framework group  C3V[C3(CCCCCH),3SGV(H)]
 Deg. of freedom     7
 Full point group                 C3V     NOp   6
 Largest Abelian subgroup         CS      NOp   2
 Largest concise Abelian subgroup CS      NOp   2
                         Standard orientation:                         
 ---------------------------------------------------------------------
 Center     Atomic      Atomic             Coordinates (Angstroms)
 Number     Number       Type             X           Y           Z
 ---------------------------------------------------------------------
      1          6           0        0.000000    0.000000    2.718814
      2          6           0        0.000000    0.000000    1.513447
      3          6           0        0.000000    0.000000    0.150166
      4          6           0        0.000000    0.000000   -1.056703
      5          6           0        0.000000    0.000000   -2.506792
      6          1           0        0.000000    0.000000    3.779818
      7          1           0        0.000000    1.019074   -2.897803
      8          1           0        0.882544   -0.509537   -2.897803
      9          1           0       -0.882544   -0.509537   -2.897803
 ---------------------------------------------------------------------
 Rotational constants (GHZ):         160.9531049           2.0522647           2.0522647
 General basis read from cards:  (5D, 7F)
 There are   157 symmetry adapted cartesian basis functions of A'  symmetry.
 There are    78 symmetry adapted cartesian basis functions of A"  symmetry.
 There are   134 symmetry adapted basis functions of A'  symmetry.
 There are    72 symmetry adapted basis functions of A"  symmetry.
   206 basis functions,   327 primitive gaussians,   235 cartesian basis functions
    17 alpha electrons       17 beta electrons
       nuclear repulsion energy       121.6831356537 Hartrees.
 NAtoms=    9 NActive=    9 NUniq=    7 SFac= 1.65D+00 NAtFMM=   60 NAOKFM=F Big=F
 Integral buffers will be    131072 words long.
 Raffenetti 2 integral format.
 Two-electron integral symmetry is turned on.
 One-electron integrals computed using PRISM.
 NBasis=   206 RedAO= T EigKep=  2.47D-05  NBF=   134    72
 NBsUse=   206 1.00D-06 EigRej= -1.00D+00 NBFU=   134    72
 ExpMin= 7.42D-02 ExpMax= 7.32D+03 ExpMxC= 2.50D+02 IAcc=3 IRadAn=         5 AccDes= 0.00D+00
 Harris functional with IExCor=  402 and IRadAn=       5 diagonalized for initial guess.
 HarFok:  IExCor=  402 AccDes= 0.00D+00 IRadAn=         5 IDoV= 1 UseB2=F ITyADJ=14
 ICtDFT=  3500011 ScaDFX=  1.000000  1.000000  1.000000  1.000000
 FoFCou: FMM=F IPFlag=           0 FMFlag=      100000 FMFlg1=           0
         NFxFlg=           0 DoJE=T BraDBF=F KetDBF=T FulRan=T
         wScrn=  0.000000 ICntrl=       500 IOpCl=  0 I1Cent=   200000004 NGrid=           0
         NMat0=    1 NMatS0=      1 NMatT0=    0 NMatD0=    1 NMtDS0=    0 NMtDT0=    0
 Petite list used in FoFCou.
 Initial guess orbital symmetries:
       Occupied  (A1) (A1) (A1) (A1) (A1) (A1) (A1) (A1) (A1) (A1)
                 (A1) (E) (E) (E) (E) (E) (E)
       Virtual   (E) (E) (A1) (E) (E) (A1) (A1) (E) (E) (A1) (A1)
                 (A1) (E) (E) (A1) (E) (E) (E) (E) (A1) (A1) (E)
                 (E) (E) (E) (A1) (E) (E) (A1) (A1) (A1) (A1) (A1)
                 (E) (E) (E) (E) (A1) (A1) (E) (E) (E) (E) (A1)
                 (E) (E) (A2) (E) (E) (E) (E) (A1) (E) (E) (A1)
                 (E) (E) (A1) (E) (E) (E) (E) (E) (E) (A1) (E)
                 (E) (A1) (A1) (E) (E) (E) (E) (A1) (E) (E) (A1)
                 (A1) (E) (E) (A1) (A1) (E) (E) (A1) (A1) (E) (E)
                 (E) (E) (A1) (A1) (E) (E) (A1) (A2) (A1) (E) (E)
                 (A2) (A1) (A2) (A1) (A1) (E) (E) (E) (E) (A1)
                 (A2) (A1) (A2) (A1) (E) (E) (E) (E) (A1) (E) (E)
                 (E) (E) (A2) (E) (E) (E) (E) (A1) (E) (E) (E)
                 (E) (E) (E) (E) (E) (E) (E) (E) (E) (A1) (A1)
                 (E) (E) (E) (E) (A1) (E) (E) (A1) (A2) (E) (E)
                 (A1) (E) (E) (E) (E) (A1) (E) (E) (E) (E) (A1)
                 (A1) (E) (E) (A1) (A1) (E) (E) (A2) (E) (E) (A1)
                 (E) (E) (A1) (E) (E) (E) (E) (A1) (E) (E) (A1)
                 (A1) (A1) (A1)
 The electronic state of the initial guess is 1-A1.
 Keep R1 ints in memory in symmetry-blocked form, NReq=342032537.
 Requested convergence on RMS density matrix=1.00D-08 within 128 cycles.
 Requested convergence on MAX density matrix=1.00D-06.
 Requested convergence on             energy=1.00D-06.
 No special actions if energy rises.
 Integral accuracy reduced to 1.0D-05 until final iterations.
 Initial convergence to 1.0D-05 achieved.  Increase integral accuracy.
 SCF Done:  E(RB3LYP) =  -192.892162825     A.U. after   13 cycles
            NFock= 13  Conv=0.97D-08     -V/T= 2.0041

 **********************************************************************

            Population analysis using the SCF Density.

 **********************************************************************

 Orbital symmetries:
       Occupied  (A1) (A1) (A1) (A1) (A1) (A1) (A1) (A1) (A1) (A1)
                 (A1) (E) (E) (E) (E) (E) (E)
       Virtual   (E) (E) (A1) (A1) (E) (E) (A1) (A1) (E) (E) (A1)
                 (E) (E) (E) (E) (A1) (A1) (E) (E) (A1) (A1) (E)
                 (E) (E) (E) (A1) (E) (E) (A1) (A1) (A1) (A1) (A1)
                 (E) (E) (A1) (E) (E) (A1) (E) (E) (E) (E) (E)
                 (E) (A2) (A1) (E) (E) (E) (E) (A1) (E) (E) (A1)
                 (E) (E) (A1) (E) (E) (E) (E) (E) (E) (A1) (E)
                 (E) (A1) (A1) (E) (E) (E) (E) (A1) (E) (E) (A1)
                 (A1) (E) (E) (A1) (A1) (E) (E) (A1) (E) (E) (A1)
                 (E) (E) (A1) (A1) (E) (E) (A1) (A2) (A1) (A2)
                 (E) (E) (A1) (A2) (A1) (A1) (E) (E) (E) (E) (A1)
                 (A2) (A1) (A2) (A1) (E) (E) (E) (E) (A1) (E) (E)
                 (E) (E) (A2) (E) (E) (E) (E) (A1) (E) (E) (E)
                 (E) (E) (E) (E) (E) (E) (E) (E) (E) (A1) (E) (E)
                 (A1) (E) (E) (A1) (E) (E) (A1) (A2) (E) (E) (A1)
                 (E) (E) (E) (E) (A1) (E) (E) (E) (E) (A1) (A1)
                 (E) (E) (A1) (A1) (E) (E) (A2) (E) (E) (A1) (E)
                 (E) (A1) (E) (E) (E) (E) (A1) (E) (E) (A1) (A1)
                 (A1) (A1)
 The electronic state is 1-A1.
 Alpha  occ. eigenvalues --  -10.20507 -10.19491 -10.19428 -10.18691 -10.18292
 Alpha  occ. eigenvalues --   -0.81053  -0.77444  -0.71844  -0.61499  -0.52429
 Alpha  occ. eigenvalues --   -0.47847  -0.44817  -0.44817  -0.34999  -0.34999
 Alpha  occ. eigenvalues --   -0.25605  -0.25605
 Alpha virt. eigenvalues --   -0.02494  -0.02494   0.00994   0.04050   0.06908
 Alpha virt. eigenvalues --    0.06908   0.08113   0.10585   0.13247   0.13247
 Alpha virt. eigenvalues --    0.15214   0.16351   0.16351   0.19007   0.19007
 Alpha virt. eigenvalues --    0.22079   0.23022   0.24543   0.24543   0.28427
 Alpha virt. eigenvalues --    0.32024   0.32104   0.32104   0.34029   0.34029
 Alpha virt. eigenvalues --    0.38173   0.42337   0.42337   0.43538   0.48122
 Alpha virt. eigenvalues --    0.49649   0.54625   0.61670   0.71550   0.71550
 Alpha virt. eigenvalues --    0.72970   0.76378   0.76378   0.83938   0.85218
 Alpha virt. eigenvalues --    0.85218   0.87912   0.87912   0.92654   0.92654
 Alpha virt. eigenvalues --    0.95749   0.99804   1.04416   1.04416   1.05217
 Alpha virt. eigenvalues --    1.05217   1.08977   1.11916   1.11916   1.19030
 Alpha virt. eigenvalues --    1.22922   1.22922   1.25613   1.27867   1.27867
 Alpha virt. eigenvalues --    1.29279   1.29279   1.33110   1.33110   1.34251
 Alpha virt. eigenvalues --    1.37520   1.37520   1.46586   1.52962   1.54017
 Alpha virt. eigenvalues --    1.54017   1.59003   1.59003   1.66233   1.66947
 Alpha virt. eigenvalues --    1.66947   1.69479   1.70532   1.74977   1.74977
 Alpha virt. eigenvalues --    1.84058   1.96132   2.04474   2.04474   2.27132
 Alpha virt. eigenvalues --    2.48047   2.48047   2.48900   2.55644   2.55644
 Alpha virt. eigenvalues --    2.56941   2.68346   2.89290   2.89290   2.91379
 Alpha virt. eigenvalues --    3.11422   3.12043   3.20901   3.20944   3.20944
 Alpha virt. eigenvalues --    3.22778   3.26941   3.31253   3.36013   3.36867
 Alpha virt. eigenvalues --    3.36867   3.42646   3.42646   3.47889   3.50115
 Alpha virt. eigenvalues --    3.51641   3.64056   3.64403   3.71079   3.71079
 Alpha virt. eigenvalues --    3.74032   3.74032   3.75354   3.79768   3.79768
 Alpha virt. eigenvalues --    3.81694   3.81694   3.82572   3.91084   3.91084
 Alpha virt. eigenvalues --    3.91661   3.91661   3.93667   3.95744   3.95744
 Alpha virt. eigenvalues --    3.99302   3.99302   4.03574   4.03574   4.09036
 Alpha virt. eigenvalues --    4.09036   4.14898   4.14898   4.19999   4.19999
 Alpha virt. eigenvalues --    4.30125   4.36318   4.36318   4.36406   4.41270
 Alpha virt. eigenvalues --    4.41270   4.54693   4.59160   4.59160   4.59460
 Alpha virt. eigenvalues --    4.60124   4.62932   4.62932   4.67021   4.69003
 Alpha virt. eigenvalues --    4.69003   4.77086   4.77086   4.78878   4.87279
 Alpha virt. eigenvalues --    4.87279   4.97670   4.97670   5.00328   5.06885
 Alpha virt. eigenvalues --    5.20117   5.20117   5.37927   5.54285   5.56445
 Alpha virt. eigenvalues --    5.56445   5.75540   5.79467   5.79467   5.81045
 Alpha virt. eigenvalues --    5.84346   5.84346   5.86078   5.91196   5.91196
 Alpha virt. eigenvalues --    5.97323   5.97323   6.05923   6.12628   6.12628
 Alpha virt. eigenvalues --    6.54243   7.20485   8.24093  10.76734
          Condensed to atoms (all electrons):
               1          2          3          4          5          6
     1  C    5.113217   0.762154  -0.140166  -0.051684  -0.002222   0.495078
     2  C    0.762154   4.894038   0.446361  -0.118761   0.000173  -0.077798
     3  C   -0.140166   0.446361   4.925865   0.946345  -0.064615  -0.001069
     4  C   -0.051684  -0.118761   0.946345   5.031383   0.288258  -0.001339
     5  C   -0.002222   0.000173  -0.064615   0.288258   4.583507  -0.000029
     6  H    0.495078  -0.077798  -0.001069  -0.001339  -0.000029   0.534698
     7  H    0.000009  -0.000068  -0.002011  -0.052363   0.430866  -0.000001
     8  H    0.000009  -0.000068  -0.002011  -0.052363   0.430866  -0.000001
     9  H    0.000009  -0.000068  -0.002011  -0.052363   0.430866  -0.000001
               7          8          9
     1  C    0.000009   0.000009   0.000009
     2  C   -0.000068  -0.000068  -0.000068
     3  C   -0.002011  -0.002011  -0.002011
     4  C   -0.052363  -0.052363  -0.052363
     5  C    0.430866   0.430866   0.430866
     6  H   -0.000001  -0.000001  -0.000001
     7  H    0.620489  -0.027356  -0.027356
     8  H   -0.027356   0.620489  -0.027356
     9  H   -0.027356  -0.027356   0.620489
 Mulliken charges:
               1
     1  C   -0.176404
     2  C    0.094039
     3  C   -0.106689
     4  C    0.062887
     5  C   -0.097669
     6  H    0.050461
     7  H    0.057792
     8  H    0.057792
     9  H    0.057792
 Sum of Mulliken charges =  -0.00000
 Mulliken charges with hydrogens summed into heavy atoms:
               1
     1  C   -0.125943
     2  C    0.094039
     3  C   -0.106689
     4  C    0.062887
     5  C    0.075706
 Electronic spatial extent (au):  <R**2>=            577.8839
 Charge=             -0.0000 electrons
 Dipole moment (field-independent basis, Debye):
    X=             -0.0000    Y=              0.0000    Z=             -1.3517  Tot=              1.3517
 Quadrupole moment (field-independent basis, Debye-Ang):
   XX=            -30.8351   YY=            -30.8351   ZZ=            -18.0425
   XY=              0.0000   XZ=             -0.0000   YZ=             -0.0000
 Traceless Quadrupole moment (field-independent basis, Debye-Ang):
   XX=             -4.2642   YY=             -4.2642   ZZ=              8.5284
   XY=              0.0000   XZ=             -0.0000   YZ=             -0.0000
 Octapole moment (field-independent basis, Debye-Ang**2):
  XXX=              0.0000  YYY=              0.7241  ZZZ=             12.0120  XYY=              0.0000
  XXY=             -0.7241  XXZ=             -5.3378  XZZ=              0.0000  YZZ=              0.0000
  YYZ=             -5.3378  XYZ=             -0.0000
 Hexadecapole moment (field-independent basis, Debye-Ang**3):
 XXXX=            -43.1308 YYYY=            -43.1308 ZZZZ=           -559.8854 XXXY=              0.0000
 XXXZ=             -0.0000 YYYX=             -0.0000 YYYZ=             -2.1521 ZZZX=             -0.0000
 ZZZY=             -0.0000 XXYY=            -14.3769 XXZZ=           -134.1769 YYZZ=           -134.1769
 XXYZ=              2.1521 YYXZ=             -0.0000 ZZXY=             -0.0000
 N-N= 1.216831356537D+02 E-N=-6.906530729164D+02  KE= 1.921115773984D+02
 Symmetry A'   KE= 1.854927645395D+02
 Symmetry A"   KE= 6.618812858873D+00
 Calling FoFJK, ICntrl=      2127 FMM=F ISym2X=1 I1Cent= 0 IOpClX= 0 NMat=1 NMatS=1 NMatT=0.
 ***** Axes restored to original set *****
 -------------------------------------------------------------------
 Center     Atomic                   Forces (Hartrees/Bohr)
 Number     Number              X              Y              Z
 -------------------------------------------------------------------
      1        6          -0.000000000    0.000000000   -0.000008832
      2        6          -0.000000000    0.000000000    0.000037282
      3        6          -0.000000000   -0.000000000   -0.000034606
      4        6          -0.000000000   -0.000000000    0.000095057
      5        6          -0.000000000   -0.000000000   -0.000168583
      6        1           0.000000000   -0.000000000    0.000003196
      7        1           0.000000000    0.000018161    0.000025495
      8        1           0.000015728   -0.000009080    0.000025495
      9        1          -0.000015728   -0.000009080    0.000025495
 -------------------------------------------------------------------
 Cartesian Forces:  Max     0.000168583 RMS     0.000039940

 GradGradGradGradGradGradGradGradGradGradGradGradGradGradGradGradGradGrad
 Berny optimization.
 FormGI is forming the generalized inverse of G from B-inverse, IUseBI=4.
 Internal  Forces:  Max     0.000092097 RMS     0.000023812
 Search for a local minimum.
 Step number   1 out of a maximum of   33
 All quantities printed in internal units (Hartrees-Bohrs-Radians)
 Mixed Optimization -- En-DIIS/RFO-DIIS
 Second derivative matrix not updated -- first step.
 ITU=  0
     Eigenvalues ---    0.00618   0.00618   0.01426   0.01426   0.02574
     Eigenvalues ---    0.02574   0.04644   0.04644   0.07585   0.16000
     Eigenvalues ---    0.16000   0.16000   0.16000   0.34638   0.34638
     Eigenvalues ---    0.34638   0.38233   0.38391   0.52290   1.01446
     Eigenvalues ---    1.02172
 RFO step:  Lambda=-5.89738176D-08 EMin= 6.18391614D-03
 Linear search not attempted -- first point.
 Iteration  1 RMS(Cart)=  0.00008509 RMS(Int)=  0.00000002
 Iteration  2 RMS(Cart)=  0.00000001 RMS(Int)=  0.00000002
 ClnCor:  largest displacement from symmetrization is 2.20D-06 for atom     7.
 Variable       Old X    -DE/DX   Delta X   Delta X   Delta X     New X
                                 (Linear)    (Quad)   (Total)
    R1        2.27781  -0.00001   0.00000  -0.00001  -0.00001   2.27781
    R2        2.00501   0.00000   0.00000   0.00001   0.00001   2.00502
    R3        2.57623   0.00003   0.00000   0.00006   0.00006   2.57629
    R4        2.28065  -0.00000   0.00000  -0.00000  -0.00000   2.28065
    R5        2.74027   0.00009   0.00000   0.00024   0.00024   2.74051
    R6        2.06266   0.00001   0.00000   0.00002   0.00002   2.06268
    R7        2.06266   0.00001   0.00000   0.00002   0.00002   2.06268
    R8        2.06266   0.00001   0.00000   0.00002   0.00002   2.06268
    A1        1.93717  -0.00002   0.00000  -0.00018  -0.00018   1.93698
    A2        1.93717  -0.00002   0.00000  -0.00018  -0.00018   1.93698
    A3        1.93717  -0.00002   0.00000  -0.00018  -0.00018   1.93698
    A4        1.88337   0.00000   0.00000   0.00019   0.00019   1.88356
    A5        1.88337   0.00003   0.00000   0.00019   0.00019   1.88356
    A6        1.88337   0.00003   0.00000   0.00019   0.00019   1.88356
    A7        3.14159   0.00000   0.00000   0.00000  -0.00000   3.14159
    A8        3.14159   0.00000   0.00000   0.00000   0.00000   3.14159
    A9        3.14159  -0.00000   0.00000  -0.00000  -0.00000   3.14159
   A10        3.14159  -0.00000   0.00000  -0.00000   0.00000   3.14159
   A11        3.14159   0.00000   0.00000   0.00000   0.00000   3.14159
   A12        3.14159  -0.00000   0.00000  -0.00000  -0.00000   3.14159
   A13        3.14159  -0.00000   0.00000  -0.00000   0.00000   3.14159
   A14        3.14159  -0.00000   0.00000  -0.00000   0.00000   3.14159
    D1        2.03092   0.00003   0.00000   0.00043   0.00043   2.03135
         Item               Value     Threshold  Converged?
 Maximum Force            0.000092     0.000450     YES
 RMS     Force            0.000024     0.000300     YES
 Maximum Displacement     0.000267     0.001800     YES
 RMS     Displacement     0.000085     0.001200     YES
 Predicted change in Energy=-2.948934D-08
 Optimization completed.
    -- Stationary point found.
                           ----------------------------
                           !   Optimized Parameters   !
                           ! (Angstroms and Degrees)  !
 --------------------------                            --------------------------
 ! Name  Definition              Value          Derivative Info.                !
 --------------------------------------------------------------------------------
 ! R1    R(1,2)                  1.2054         -DE/DX =    0.0                 !
 ! R2    R(1,6)                  1.061          -DE/DX =    0.0                 !
 ! R3    R(2,3)                  1.3633         -DE/DX =    0.0                 !
 ! R4    R(3,4)                  1.2069         -DE/DX =    0.0                 !
 ! R5    R(4,5)                  1.4501         -DE/DX =    0.0001              !
 ! R6    R(5,7)                  1.0915         -DE/DX =    0.0                 !
 ! R7    R(5,8)                  1.0915         -DE/DX =    0.0                 !
 ! R8    R(5,9)                  1.0915         -DE/DX =    0.0                 !
 ! A1    A(4,5,7)              110.9914         -DE/DX =    0.0                 !
 ! A2    A(4,5,8)              110.9914         -DE/DX =    0.0                 !
 ! A3    A(4,5,9)              110.9914         -DE/DX =    0.0                 !
 ! A4    A(7,5,8)              107.9092         -DE/DX =    0.0                 !
 ! A5    A(7,5,9)              107.9092         -DE/DX =    0.0                 !
 ! A6    A(8,5,9)              107.9092         -DE/DX =    0.0                 !
 ! A7    L(2,1,6,7,-1)         180.0            -DE/DX =    0.0                 !
 ! A8    L(1,2,3,7,-1)         180.0            -DE/DX =    0.0                 !
 ! A9    L(2,3,4,7,-1)         180.0            -DE/DX =    0.0                 !
 ! A10   L(3,4,5,7,-1)         180.0            -DE/DX =    0.0                 !
 ! A11   L(2,1,6,7,-2)         180.0            -DE/DX =    0.0                 !
 ! A12   L(1,2,3,7,-2)         180.0            -DE/DX =    0.0                 !
 ! A13   L(2,3,4,7,-2)         180.0            -DE/DX =    0.0                 !
 ! A14   L(3,4,5,7,-2)         180.0            -DE/DX =    0.0                 !
 ! D1    D(7,5,9,8)            116.3633         -DE/DX =    0.0                 !
 --------------------------------------------------------------------------------
 GradGradGradGradGradGradGradGradGradGradGradGradGradGradGradGradGradGrad

                          Input orientation:                          
 ---------------------------------------------------------------------
 Center     Atomic      Atomic             Coordinates (Angstroms)
 Number     Number       Type             X           Y           Z
 ---------------------------------------------------------------------
      1          6           0        0.000000   -0.000000    2.718814
      2          6           0        0.000000   -0.000000    1.513447
      3          6           0        0.000000   -0.000000    0.150166
      4          6           0        0.000000   -0.000000   -1.056703
      5          6           0        0.000000   -0.000000   -2.506792
      6          1           0        0.000000   -0.000000    3.779818
      7          1           0        0.000000    1.019074   -2.897803
      8          1           0        0.882544   -0.509537   -2.897803
      9          1           0       -0.882544   -0.509537   -2.897803
 ---------------------------------------------------------------------
                    Distance matrix (angstroms):
                    1          2          3          4          5
     1  C    0.000000
     2  C    1.205367   0.000000
     3  C    2.568648   1.363281   0.000000
     4  C    3.775517   2.570150   1.206869   0.000000
     5  C    5.225606   4.020239   2.656958   1.450089   0.000000
     6  H    1.061004   2.266371   3.629652   4.836521   6.286610
     7  H    5.708318   4.527432   3.213818   2.104320   1.091513
     8  H    5.708318   4.527432   3.213818   2.104320   1.091513
     9  H    5.708318   4.527432   3.213818   2.104320   1.091513
                    6          7          8          9
     6  H    0.000000
     7  H    6.754934   0.000000
     8  H    6.754934   1.765088   0.000000
     9  H    6.754934   1.765088   1.765088   0.000000
 Stoichiometry    C5H4
 Framework group  C3V[C3(CCCCCH),3SGV(H)]
 Deg. of freedom     7
 Full point group                 C3V     NOp   6
 Largest Abelian subgroup         CS      NOp   2
 Largest concise Abelian subgroup CS      NOp   2
                         Standard orientation:                         
 ---------------------------------------------------------------------
 Center     Atomic      Atomic             Coordinates (Angstroms)
 Number     Number       Type             X           Y           Z
 ---------------------------------------------------------------------
      1          6           0        0.000000    0.000000    2.718814
      2          6           0        0.000000    0.000000    1.513447
      3          6           0        0.000000    0.000000    0.150166
      4          6           0        0.000000    0.000000   -1.056703
      5          6           0        0.000000    0.000000   -2.506792
      6          1           0        0.000000    0.000000    3.779818
      7          1           0        0.000000    1.019074   -2.897803
      8          1           0        0.882544   -0.509537   -2.897803
      9          1           0       -0.882544   -0.509537   -2.897803
 ---------------------------------------------------------------------
 Rotational constants (GHZ):         160.9531049           2.0522647           2.0522647
 1\1\GINC-GAMBA\FOpt\RB3LYP\Gen\C5H4\IRIKURA\29-Sep-2023\0\\# b3lyp/gen
  opt freq CPHF(Grid=OneStep)\\1,3-pentadiyne, B3LYP/pcseg-2\\0,1\C,0.,
 0.,2.718814\C,0.,0.,1.513447\C,0.,0.,0.150166\C,0.,0.,-1.056703\C,0.,0
 .,-2.506792\H,0.,0.,3.779818\H,0.0000000138,1.019074,-2.897803\H,0.882
 5439654,-0.509537012,-2.897803\H,-0.8825439793,-0.509536988,-2.897803\
 \Version=ES64L-G16RevB.01\State=1-A1\HF=-192.8921628\RMSD=9.675e-09\RM
 SF=3.994e-05\Dipole=0.,0.,-0.5317892\Quadrupole=-3.1703105,-3.1703105,
 6.340621,0.,0.,0.\PG=C03V [C3(C1C1C1C1C1H1),3SGV(H1)]\\@


 MY DESCRIPTION OF EXPERIENCE IS NOT WHAT HAPPENS
 TO A MAN.  EXPERIENCE IS WHAT A MAN DOES WITH WHAT
 HAPPENS TO HIM.
                         - CHUCK KNOX, SEATTLE SEAHAWKS, 1985
 Job cpu time:       0 days  0 hours  1 minutes 30.8 seconds.
 Elapsed time:       0 days  0 hours  0 minutes 23.7 seconds.
 File lengths (MBytes):  RWF=     23 Int=      0 D2E=      0 Chk=      4 Scr=      1
 Normal termination of Gaussian 16 at Fri Sep 29 09:21:48 2023.
 Link1:  Proceeding to internal job step number  2.
 ------------------------------------------------------------------
 #N Geom=AllCheck Guess=TCheck SCRF=Check GenChk RB3LYP/ChkBas Freq
 ------------------------------------------------------------------
 1/10=4,29=7,30=1,38=1,40=1/1,3;
 2/12=2,40=1/2;
 3/5=7,6=2,11=2,14=-4,25=1,30=1,67=1,70=2,71=2,74=-5,82=7,116=1,140=1/1,2,3;
 4/5=101/1;
 5/5=2,38=6,98=1/2;
 8/6=4,10=90,11=11/1;
 11/6=1,8=1,9=11,15=111,16=1/1,2,10;
 10/6=1,60=-420/2;
 6/7=2,8=2,9=2,10=2,28=1/1;
 7/8=1,10=1,25=1/1,2,3,16;
 1/10=4,30=1/3;
 99//99;
 Structure from the checkpoint file:  "mec4h.chk"
 -----------------------------
 1,3-pentadiyne, B3LYP/pcseg-2
 -----------------------------
 Charge =  0 Multiplicity = 1
 Redundant internal coordinates found in file.  (old form).
 C,0,0.,0.,2.718814
 C,0,0.,0.,1.513447
 C,0,0.,0.,0.150166
 C,0,0.,0.,-1.056703
 C,0,0.,0.,-2.506792
 H,0,0.,0.,3.779818
 H,0,0.0000000138,1.019074,-2.897803
 H,0,0.8825439654,-0.509537012,-2.897803
 H,0,-0.8825439793,-0.509536988,-2.897803
 Recover connectivity data from disk.

 GradGradGradGradGradGradGradGradGradGradGradGradGradGradGradGradGradGrad
 Berny optimization.
 Initialization pass.
                           ----------------------------
                           !    Initial Parameters    !
                           ! (Angstroms and Degrees)  !
 --------------------------                            --------------------------
 ! Name  Definition              Value          Derivative Info.                !
 --------------------------------------------------------------------------------
 ! R1    R(1,2)                  1.2054         calculate D2E/DX2 analytically  !
 ! R2    R(1,6)                  1.061          calculate D2E/DX2 analytically  !
 ! R3    R(2,3)                  1.3633         calculate D2E/DX2 analytically  !
 ! R4    R(3,4)                  1.2069         calculate D2E/DX2 analytically  !
 ! R5    R(4,5)                  1.4501         calculate D2E/DX2 analytically  !
 ! R6    R(5,7)                  1.0915         calculate D2E/DX2 analytically  !
 ! R7    R(5,8)                  1.0915         calculate D2E/DX2 analytically  !
 ! R8    R(5,9)                  1.0915         calculate D2E/DX2 analytically  !
 ! A1    A(4,5,7)              110.9914         calculate D2E/DX2 analytically  !
 ! A2    A(4,5,8)              110.9914         calculate D2E/DX2 analytically  !
 ! A3    A(4,5,9)              110.9914         calculate D2E/DX2 analytically  !
 ! A4    A(7,5,8)              107.9092         calculate D2E/DX2 analytically  !
 ! A5    A(7,5,9)              107.9092         calculate D2E/DX2 analytically  !
 ! A6    A(8,5,9)              107.9092         calculate D2E/DX2 analytically  !
 ! A7    L(2,1,6,7,-1)         180.0            calculate D2E/DX2 analytically  !
 ! A8    L(1,2,3,7,-1)         180.0            calculate D2E/DX2 analytically  !
 ! A9    L(2,3,4,7,-1)         180.0            calculate D2E/DX2 analytically  !
 ! A10   L(3,4,5,7,-1)         180.0            calculate D2E/DX2 analytically  !
 ! A11   L(2,1,6,7,-2)         180.0            calculate D2E/DX2 analytically  !
 ! A12   L(1,2,3,7,-2)         180.0            calculate D2E/DX2 analytically  !
 ! A13   L(2,3,4,7,-2)         180.0            calculate D2E/DX2 analytically  !
 ! A14   L(3,4,5,7,-2)         180.0            calculate D2E/DX2 analytically  !
 ! D1    D(7,5,9,8)            116.3633         calculate D2E/DX2 analytically  !
 --------------------------------------------------------------------------------
 Trust Radius=3.00D-01 FncErr=1.00D-07 GrdErr=1.00D-07 EigMax=2.50D+02 EigMin=1.00D-04
 Number of steps in this run=      2 maximum allowed number of steps=      2.
 GradGradGradGradGradGradGradGradGradGradGradGradGradGradGradGradGradGrad

                          Input orientation:                          
 ---------------------------------------------------------------------
 Center     Atomic      Atomic             Coordinates (Angstroms)
 Number     Number       Type             X           Y           Z
 ---------------------------------------------------------------------
      1          6           0       -0.000000   -0.000000    2.718814
      2          6           0       -0.000000   -0.000000    1.513447
      3          6           0       -0.000000   -0.000000    0.150166
      4          6           0       -0.000000   -0.000000   -1.056703
      5          6           0       -0.000000   -0.000000   -2.506792
      6          1           0       -0.000000   -0.000000    3.779818
      7          1           0        0.000000    1.019074   -2.897803
      8          1           0        0.882544   -0.509537   -2.897803
      9          1           0       -0.882544   -0.509537   -2.897803
 ---------------------------------------------------------------------
                    Distance matrix (angstroms):
                    1          2          3          4          5
     1  C    0.000000
     2  C    1.205367   0.000000
     3  C    2.568648   1.363281   0.000000
     4  C    3.775517   2.570150   1.206869   0.000000
     5  C    5.225606   4.020239   2.656958   1.450089   0.000000
     6  H    1.061004   2.266371   3.629652   4.836521   6.286610
     7  H    5.708318   4.527432   3.213818   2.104320   1.091513
     8  H    5.708318   4.527432   3.213818   2.104320   1.091513
     9  H    5.708318   4.527432   3.213818   2.104320   1.091513
                    6          7          8          9
     6  H    0.000000
     7  H    6.754934   0.000000
     8  H    6.754934   1.765088   0.000000
     9  H    6.754934   1.765088   1.765088   0.000000
 Stoichiometry    C5H4
 Framework group  C3V[C3(CCCCCH),3SGV(H)]
 Deg. of freedom     7
 Full point group                 C3V     NOp   6
 Largest Abelian subgroup         CS      NOp   2
 Largest concise Abelian subgroup CS      NOp   2
                         Standard orientation:                         
 ---------------------------------------------------------------------
 Center     Atomic      Atomic             Coordinates (Angstroms)
 Number     Number       Type             X           Y           Z
 ---------------------------------------------------------------------
      1          6           0        0.000000    0.000000    2.718814
      2          6           0        0.000000    0.000000    1.513447
      3          6           0        0.000000    0.000000    0.150166
      4          6           0        0.000000    0.000000   -1.056703
      5          6           0        0.000000    0.000000   -2.506792
      6          1           0        0.000000    0.000000    3.779818
      7          1           0        0.000000    1.019074   -2.897803
      8          1           0        0.882544   -0.509537   -2.897803
      9          1           0       -0.882544   -0.509537   -2.897803
 ---------------------------------------------------------------------
 Rotational constants (GHZ):         160.9531049           2.0522647           2.0522647
 Basis read from chk: "mec4h.chk" (5D, 7F)
 There are   157 symmetry adapted cartesian basis functions of A'  symmetry.
 There are    78 symmetry adapted cartesian basis functions of A"  symmetry.
 There are   134 symmetry adapted basis functions of A'  symmetry.
 There are    72 symmetry adapted basis functions of A"  symmetry.
   206 basis functions,   327 primitive gaussians,   235 cartesian basis functions
    17 alpha electrons       17 beta electrons
       nuclear repulsion energy       121.6831356537 Hartrees.
 NAtoms=    9 NActive=    9 NUniq=    7 SFac= 1.65D+00 NAtFMM=   60 NAOKFM=F Big=F
 Integral buffers will be    131072 words long.
 Raffenetti 2 integral format.
 Two-electron integral symmetry is turned on.
 One-electron integrals computed using PRISM.
 NBasis=   206 RedAO= T EigKep=  2.47D-05  NBF=   134    72
 NBsUse=   206 1.00D-06 EigRej= -1.00D+00 NBFU=   134    72
 Initial guess from the checkpoint file:  "mec4h.chk"
 B after Tr=     0.000000    0.000000   -0.000000
         Rot=    1.000000    0.000000    0.000000    0.000000 Ang=   0.00 deg.
 Initial guess orbital symmetries:
       Occupied  (A1) (A1) (A1) (A1) (A1) (A1) (A1) (A1) (A1) (A1)
                 (A1) (E) (E) (E) (E) (E) (E)
       Virtual   (E) (E) (A1) (A1) (E) (E) (A1) (A1) (E) (E) (A1)
                 (E) (E) (E) (E) (A1) (A1) (E) (E) (A1) (A1) (E)
                 (E) (E) (E) (A1) (E) (E) (A1) (A1) (A1) (A1) (A1)
                 (E) (E) (A1) (E) (E) (A1) (E) (E) (E) (E) (E)
                 (E) (A2) (A1) (E) (E) (E) (E) (A1) (E) (E) (A1)
                 (E) (E) (A1) (E) (E) (E) (E) (E) (E) (A1) (E)
                 (E) (A1) (A1) (E) (E) (E) (E) (A1) (E) (E) (A1)
                 (A1) (E) (E) (A1) (A1) (E) (E) (A1) (E) (E) (A1)
                 (E) (E) (A1) (A1) (E) (E) (A1) (A2) (A1) (A2)
                 (E) (E) (A1) (A2) (A1) (A1) (E) (E) (E) (E) (A1)
                 (A2) (A1) (A2) (A1) (E) (E) (E) (E) (A1) (E) (E)
                 (E) (E) (A2) (E) (E) (E) (E) (A1) (E) (E) (E)
                 (E) (E) (E) (E) (E) (E) (E) (E) (E) (A1) (E) (E)
                 (A1) (E) (E) (A1) (E) (E) (A1) (A2) (E) (E) (A1)
                 (E) (E) (E) (E) (A1) (E) (E) (E) (E) (A1) (A1)
                 (E) (E) (A1) (A1) (E) (E) (A2) (E) (E) (A1) (E)
                 (E) (A1) (E) (E) (E) (E) (A1) (E) (E) (A1) (A1)
                 (A1) (A1)
 Keep R1 ints in memory in symmetry-blocked form, NReq=342032537.
 Requested convergence on RMS density matrix=1.00D-08 within 128 cycles.
 Requested convergence on MAX density matrix=1.00D-06.
 Requested convergence on             energy=1.00D-06.
 No special actions if energy rises.
 SCF Done:  E(RB3LYP) =  -192.892162825     A.U. after    1 cycles
            NFock=  1  Conv=0.57D-08     -V/T= 2.0041
 DoSCS=F DFT=T ScalE2(SS,OS)=  1.000000  1.000000
 Range of M.O.s used for correlation:     1   206
 NBasis=   206 NAE=    17 NBE=    17 NFC=     0 NFV=     0
 NROrb=    206 NOA=    17 NOB=    17 NVA=   189 NVB=   189

 **** Warning!!: The largest alpha MO coefficient is  0.57730702D+02

 Symmetrizing basis deriv contribution to polar:
 IMax=3 JMax=2 DiffMx= 0.00D+00
 G2DrvN: will do    10 centers at a time, making    1 passes.
 Calling FoFCou, ICntrl=  3107 FMM=F I1Cent=   0 AccDes= 0.00D+00.
 End of G2Drv F.D. properties file   721 does not exist.
 End of G2Drv F.D. properties file   722 does not exist.
 End of G2Drv F.D. properties file   788 does not exist.
          IDoAtm=111111111
          Differentiating once with respect to electric field.
                with respect to dipole field.
          Differentiating once with respect to nuclear coordinates.
 Keep R1 ints in memory in symmetry-blocked form, NReq=342038229.
          There are    24 degrees of freedom in the 1st order CPHF.  IDoFFX=4 NUNeed=    24.
     24 vectors produced by pass  0 Test12= 1.34D-14 4.17D-09 XBig12= 2.07D+02 9.89D+00.
 AX will form    24 AO Fock derivatives at one time.
     24 vectors produced by pass  1 Test12= 1.34D-14 4.17D-09 XBig12= 9.17D+01 1.93D+00.
     24 vectors produced by pass  2 Test12= 1.34D-14 4.17D-09 XBig12= 1.77D+00 2.87D-01.
     24 vectors produced by pass  3 Test12= 1.34D-14 4.17D-09 XBig12= 4.16D-03 1.11D-02.
     24 vectors produced by pass  4 Test12= 1.34D-14 4.17D-09 XBig12= 1.04D-05 5.19D-04.
     20 vectors produced by pass  5 Test12= 1.34D-14 4.17D-09 XBig12= 1.79D-08 2.63D-05.
      6 vectors produced by pass  6 Test12= 1.34D-14 4.17D-09 XBig12= 1.21D-11 7.53D-07.
      2 vectors produced by pass  7 Test12= 1.34D-14 4.17D-09 XBig12= 1.42D-14 1.86D-08.
 InvSVY:  IOpt=1 It=  1 EMax= 3.55D-15
 Solved reduced A of dimension   148 with    24 vectors.
 Isotropic polarizability for W=    0.000000       61.43 Bohr**3.
 End of Minotr F.D. properties file   721 does not exist.
 End of Minotr F.D. properties file   722 does not exist.
 End of Minotr F.D. properties file   788 does not exist.

 **********************************************************************

            Population analysis using the SCF Density.

 **********************************************************************

 Orbital symmetries:
       Occupied  (A1) (A1) (A1) (A1) (A1) (A1) (A1) (A1) (A1) (A1)
                 (A1) (E) (E) (E) (E) (E) (E)
       Virtual   (E) (E) (A1) (A1) (E) (E) (A1) (A1) (E) (E) (A1)
                 (E) (E) (E) (E) (A1) (A1) (E) (E) (A1) (A1) (E)
                 (E) (E) (E) (A1) (E) (E) (A1) (A1) (A1) (A1) (A1)
                 (E) (E) (A1) (E) (E) (A1) (E) (E) (E) (E) (E)
                 (E) (A2) (A1) (E) (E) (E) (E) (A1) (E) (E) (A1)
                 (E) (E) (A1) (E) (E) (E) (E) (E) (E) (A1) (E)
                 (E) (A1) (A1) (E) (E) (E) (E) (A1) (E) (E) (A1)
                 (A1) (E) (E) (A1) (A1) (E) (E) (A1) (E) (E) (A1)
                 (E) (E) (A1) (A1) (E) (E) (A1) (A2) (A1) (A2)
                 (E) (E) (A1) (A2) (A1) (A1) (E) (E) (E) (E) (A1)
                 (A2) (A1) (A2) (A1) (E) (E) (E) (E) (A1) (E) (E)
                 (E) (E) (A2) (E) (E) (E) (E) (A1) (E) (E) (E)
                 (E) (E) (E) (E) (E) (E) (E) (E) (E) (A1) (E) (E)
                 (A1) (E) (E) (A1) (E) (E) (A1) (A2) (E) (E) (A1)
                 (E) (E) (E) (E) (A1) (E) (E) (E) (E) (A1) (A1)
                 (E) (E) (A1) (A1) (E) (E) (A2) (E) (E) (A1) (E)
                 (E) (A1) (E) (E) (E) (E) (A1) (E) (E) (A1) (A1)
                 (A1) (A1)
 The electronic state is 1-A1.
 Alpha  occ. eigenvalues --  -10.20507 -10.19491 -10.19428 -10.18691 -10.18292
 Alpha  occ. eigenvalues --   -0.81053  -0.77444  -0.71844  -0.61499  -0.52429
 Alpha  occ. eigenvalues --   -0.47847  -0.44817  -0.44817  -0.34999  -0.34999
 Alpha  occ. eigenvalues --   -0.25605  -0.25605
 Alpha virt. eigenvalues --   -0.02494  -0.02494   0.00994   0.04050   0.06908
 Alpha virt. eigenvalues --    0.06908   0.08113   0.10585   0.13247   0.13247
 Alpha virt. eigenvalues --    0.15214   0.16351   0.16351   0.19007   0.19007
 Alpha virt. eigenvalues --    0.22079   0.23022   0.24543   0.24543   0.28427
 Alpha virt. eigenvalues --    0.32024   0.32104   0.32104   0.34029   0.34029
 Alpha virt. eigenvalues --    0.38173   0.42337   0.42337   0.43538   0.48122
 Alpha virt. eigenvalues --    0.49649   0.54625   0.61670   0.71550   0.71550
 Alpha virt. eigenvalues --    0.72970   0.76378   0.76378   0.83938   0.85218
 Alpha virt. eigenvalues --    0.85218   0.87912   0.87912   0.92654   0.92654
 Alpha virt. eigenvalues --    0.95749   0.99804   1.04416   1.04416   1.05217
 Alpha virt. eigenvalues --    1.05217   1.08977   1.11916   1.11916   1.19030
 Alpha virt. eigenvalues --    1.22922   1.22922   1.25613   1.27867   1.27867
 Alpha virt. eigenvalues --    1.29279   1.29279   1.33110   1.33110   1.34251
 Alpha virt. eigenvalues --    1.37520   1.37520   1.46586   1.52962   1.54017
 Alpha virt. eigenvalues --    1.54017   1.59003   1.59003   1.66233   1.66947
 Alpha virt. eigenvalues --    1.66947   1.69479   1.70532   1.74977   1.74977
 Alpha virt. eigenvalues --    1.84058   1.96132   2.04474   2.04474   2.27132
 Alpha virt. eigenvalues --    2.48047   2.48047   2.48900   2.55644   2.55644
 Alpha virt. eigenvalues --    2.56941   2.68346   2.89290   2.89290   2.91379
 Alpha virt. eigenvalues --    3.11422   3.12043   3.20901   3.20944   3.20944
 Alpha virt. eigenvalues --    3.22778   3.26941   3.31253   3.36013   3.36867
 Alpha virt. eigenvalues --    3.36867   3.42646   3.42646   3.47889   3.50115
 Alpha virt. eigenvalues --    3.51641   3.64056   3.64403   3.71079   3.71079
 Alpha virt. eigenvalues --    3.74032   3.74032   3.75354   3.79768   3.79768
 Alpha virt. eigenvalues --    3.81694   3.81694   3.82572   3.91084   3.91084
 Alpha virt. eigenvalues --    3.91661   3.91661   3.93667   3.95744   3.95744
 Alpha virt. eigenvalues --    3.99302   3.99302   4.03574   4.03574   4.09036
 Alpha virt. eigenvalues --    4.09036   4.14898   4.14898   4.19999   4.19999
 Alpha virt. eigenvalues --    4.30125   4.36318   4.36318   4.36406   4.41270
 Alpha virt. eigenvalues --    4.41270   4.54693   4.59160   4.59160   4.59460
 Alpha virt. eigenvalues --    4.60124   4.62932   4.62932   4.67021   4.69003
 Alpha virt. eigenvalues --    4.69003   4.77086   4.77086   4.78879   4.87279
 Alpha virt. eigenvalues --    4.87279   4.97670   4.97670   5.00328   5.06885
 Alpha virt. eigenvalues --    5.20117   5.20117   5.37927   5.54285   5.56445
 Alpha virt. eigenvalues --    5.56445   5.75540   5.79467   5.79467   5.81045
 Alpha virt. eigenvalues --    5.84346   5.84346   5.86078   5.91196   5.91196
 Alpha virt. eigenvalues --    5.97323   5.97323   6.05923   6.12628   6.12628
 Alpha virt. eigenvalues --    6.54243   7.20485   8.24093  10.76734
          Condensed to atoms (all electrons):
               1          2          3          4          5          6
     1  C    5.113218   0.762154  -0.140166  -0.051684  -0.002222   0.495078
     2  C    0.762154   4.894037   0.446361  -0.118762   0.000173  -0.077798
     3  C   -0.140166   0.446361   4.925864   0.946345  -0.064615  -0.001069
     4  C   -0.051684  -0.118762   0.946345   5.031383   0.288258  -0.001339
     5  C   -0.002222   0.000173  -0.064615   0.288258   4.583507  -0.000029
     6  H    0.495078  -0.077798  -0.001069  -0.001339  -0.000029   0.534698
     7  H    0.000009  -0.000068  -0.002011  -0.052363   0.430866  -0.000001
     8  H    0.000009  -0.000068  -0.002011  -0.052363   0.430866  -0.000001
     9  H    0.000009  -0.000068  -0.002011  -0.052363   0.430866  -0.000001
               7          8          9
     1  C    0.000009   0.000009   0.000009
     2  C   -0.000068  -0.000068  -0.000068
     3  C   -0.002011  -0.002011  -0.002011
     4  C   -0.052363  -0.052363  -0.052363
     5  C    0.430866   0.430866   0.430866
     6  H   -0.000001  -0.000001  -0.000001
     7  H    0.620489  -0.027356  -0.027356
     8  H   -0.027356   0.620489  -0.027356
     9  H   -0.027356  -0.027356   0.620489
 Mulliken charges:
               1
     1  C   -0.176405
     2  C    0.094039
     3  C   -0.106688
     4  C    0.062887
     5  C   -0.097669
     6  H    0.050461
     7  H    0.057791
     8  H    0.057791
     9  H    0.057791
 Sum of Mulliken charges =   0.00000
 Mulliken charges with hydrogens summed into heavy atoms:
               1
     1  C   -0.125944
     2  C    0.094039
     3  C   -0.106688
     4  C    0.062887
     5  C    0.075706
 APT charges:
               1
     1  C   -0.398259
     2  C    0.176228
     3  C   -0.136704
     4  C    0.026954
     5  C    0.099234
     6  H    0.240500
     7  H   -0.002651
     8  H   -0.002651
     9  H   -0.002651
 Sum of APT charges =   0.00000
 APT charges with hydrogens summed into heavy atoms:
               1
     1  C   -0.157759
     2  C    0.176228
     3  C   -0.136704
     4  C    0.026954
     5  C    0.091281
 Electronic spatial extent (au):  <R**2>=            577.8839
 Charge=             -0.0000 electrons
 Dipole moment (field-independent basis, Debye):
    X=              0.0000    Y=              0.0000    Z=             -1.3517  Tot=              1.3517
 Quadrupole moment (field-independent basis, Debye-Ang):
   XX=            -30.8351   YY=            -30.8351   ZZ=            -18.0426
   XY=             -0.0000   XZ=             -0.0000   YZ=             -0.0000
 Traceless Quadrupole moment (field-independent basis, Debye-Ang):
   XX=             -4.2642   YY=             -4.2642   ZZ=              8.5283
   XY=             -0.0000   XZ=             -0.0000   YZ=             -0.0000
 Octapole moment (field-independent basis, Debye-Ang**2):
  XXX=              0.0000  YYY=              0.7241  ZZZ=             12.0120  XYY=              0.0000
  XXY=             -0.7241  XXZ=             -5.3378  XZZ=             -0.0000  YZZ=             -0.0000
  YYZ=             -5.3378  XYZ=             -0.0000
 Hexadecapole moment (field-independent basis, Debye-Ang**3):
 XXXX=            -43.1309 YYYY=            -43.1309 ZZZZ=           -559.8859 XXXY=              0.0000
 XXXZ=             -0.0000 YYYX=             -0.0000 YYYZ=             -2.1521 ZZZX=             -0.0000
 ZZZY=              0.0000 XXYY=            -14.3770 XXZZ=           -134.1770 YYZZ=           -134.1770
 XXYZ=              2.1521 YYXZ=             -0.0000 ZZXY=              0.0000
 N-N= 1.216831356537D+02 E-N=-6.906530637098D+02  KE= 1.921115748350D+02
 Symmetry A'   KE= 1.854927627540D+02
 Symmetry A"   KE= 6.618812081079D+00
  Exact polarizability:  33.447   0.000  33.447   0.000  -0.000 117.401
 Approx polarizability:  45.177  -0.000  45.177   0.000  -0.000 211.130
 Calling FoFJK, ICntrl=    100127 FMM=F ISym2X=1 I1Cent= 0 IOpClX= 0 NMat=1 NMatS=1 NMatT=0.
 Full mass-weighted force constant matrix:
 Low frequencies ---  -15.4981   -3.2652   -3.2584    0.0006    0.0038    0.0049
 Low frequencies ---  146.6642  146.6644  342.2003
 Diagonal vibrational polarizability:
       12.8660838      12.8660752       0.5977724
 Harmonic frequencies (cm**-1), IR intensities (KM/Mole), Raman scattering
 activities (A**4/AMU), depolarization ratios for plane and unpolarized
 incident light, reduced masses (AMU), force constants (mDyne/A),
 and normal coordinates:
                      1                      2                      3
                      E                      E                      E
 Frequencies --    146.6642               146.6644               342.2003
 Red. masses --      3.6120                 3.6120                 4.1851
 Frc consts  --      0.0458                 0.0458                 0.2887
 IR Inten    --      7.3889                 7.3889                 0.2326
  Atom  AN      X      Y      Z        X      Y      Z        X      Y      Z
     1   6    -0.25   0.00  -0.00    -0.00  -0.25   0.00    -0.00   0.13   0.00
     2   6     0.11  -0.00  -0.00     0.00   0.11   0.00     0.00  -0.30   0.00
     3   6     0.30  -0.00  -0.00     0.00   0.30   0.00     0.00  -0.14   0.00
     4   6     0.18  -0.00   0.00     0.00   0.18  -0.00    -0.00   0.40  -0.00
     5   6    -0.21   0.00   0.00    -0.00  -0.21  -0.00     0.00  -0.07  -0.00
     6   1    -0.54   0.00  -0.00    -0.00  -0.54   0.00    -0.00   0.44   0.00
     7   1    -0.33   0.00   0.00    -0.00  -0.33  -0.31     0.00  -0.25  -0.47
     8   1    -0.33  -0.00  -0.27    -0.00  -0.33   0.16    -0.00  -0.25   0.23
     9   1    -0.33   0.00   0.27     0.00  -0.33   0.16     0.00  -0.25   0.23
                      4                      5                      6
                      E                      E                      E
 Frequencies --    342.2003               531.5270               531.5270
 Red. masses --      4.1851                 8.8516                 8.8516
 Frc consts  --      0.2887                 1.4734                 1.4734
 IR Inten    --      0.2326                 0.7800                 0.7800
  Atom  AN      X      Y      Z        X      Y      Z        X      Y      Z
     1   6     0.13   0.00   0.00    -0.00   0.15  -0.00     0.15   0.00  -0.00
     2   6    -0.30  -0.00   0.00     0.00  -0.54  -0.00    -0.54  -0.00  -0.00
     3   6    -0.14  -0.00   0.00    -0.00   0.58  -0.00     0.58   0.00  -0.00
     4   6     0.40   0.00  -0.00     0.00  -0.23   0.00    -0.23  -0.00   0.00
     5   6    -0.07  -0.00  -0.00     0.00  -0.02   0.00    -0.02  -0.00   0.00
     6   1     0.44   0.00   0.00    -0.00   0.40  -0.00     0.40   0.00  -0.00
     7   1    -0.25  -0.00  -0.00    -0.00   0.09   0.26     0.09   0.00   0.00
     8   1    -0.25  -0.00  -0.40     0.00   0.09  -0.13     0.09   0.00   0.22
     9   1    -0.25   0.00   0.40    -0.00   0.09  -0.13     0.09  -0.00  -0.22
                      7                      8                      9
                      E                      E                     A1
 Frequencies --    648.7944               648.7944               680.9548
 Red. masses --      1.2590                 1.2590                 4.8415
 Frc consts  --      0.3122                 0.3122                 1.3227
 IR Inten    --     52.2840                52.2840                 0.1229
  Atom  AN      X      Y      Z        X      Y      Z        X      Y      Z
     1   6     0.00  -0.14  -0.00    -0.14  -0.00  -0.00    -0.00   0.00  -0.32
     2   6    -0.00   0.05  -0.00     0.05   0.00  -0.00     0.00  -0.00  -0.26
     3   6    -0.00   0.02  -0.00     0.02   0.00  -0.00    -0.00  -0.00  -0.01
     4   6     0.00  -0.01   0.00    -0.01  -0.00   0.00     0.00   0.00   0.10
     5   6     0.00  -0.00   0.00    -0.00  -0.00   0.00    -0.00  -0.00   0.41
     6   1    -0.00   0.99  -0.00     0.99   0.00  -0.00     0.00  -0.00  -0.34
     7   1    -0.00   0.00   0.01     0.00   0.00   0.00     0.00   0.01   0.42
     8   1     0.00   0.00  -0.00     0.00   0.00   0.01     0.01  -0.00   0.42
     9   1    -0.00   0.00  -0.00     0.00  -0.00  -0.01    -0.01  -0.00   0.42
                     10                     11                     12
                      E                      E                     A1
 Frequencies --   1049.4511              1049.4511              1181.6154
 Red. masses --      1.4050                 1.4050                 5.8168
 Frc consts  --      0.9117                 0.9117                 4.7851
 IR Inten    --      1.2955                 1.2955                 1.7432
  Atom  AN      X      Y      Z        X      Y      Z        X      Y      Z
     1   6    -0.00   0.00  -0.00    -0.00  -0.00   0.00     0.00  -0.00  -0.26
     2   6     0.00  -0.00  -0.00     0.00   0.00   0.00    -0.00   0.00  -0.11
     3   6     0.00  -0.01   0.00     0.01   0.00  -0.00    -0.00   0.00   0.38
     4   6    -0.00   0.11   0.00    -0.11  -0.00  -0.00     0.00  -0.00   0.38
     5   6     0.00  -0.16  -0.00     0.16   0.00   0.00    -0.00   0.00  -0.27
     6   1    -0.00   0.00  -0.00    -0.00  -0.00   0.00     0.00   0.00  -0.30
     7   1    -0.00   0.13   0.71    -0.36  -0.00  -0.00     0.00  -0.05  -0.39
     8   1     0.10   0.30  -0.35    -0.19  -0.10  -0.61    -0.04   0.02  -0.39
     9   1    -0.10   0.30  -0.35    -0.19   0.10   0.61     0.04   0.02  -0.39
                     13                     14                     15
                     A1                      E                      E
 Frequencies --   1415.6938              1471.9511              1471.9512
 Red. masses --      1.2545                 1.0385                 1.0385
 Frc consts  --      1.4814                 1.3257                 1.3257
 IR Inten    --      2.9956                 8.4984                 8.4984
  Atom  AN      X      Y      Z        X      Y      Z        X      Y      Z
     1   6    -0.00  -0.00  -0.01     0.00  -0.00  -0.00    -0.00  -0.00  -0.00
     2   6    -0.00   0.00  -0.00    -0.00   0.00  -0.00     0.00   0.00  -0.00
     3   6    -0.00   0.00   0.02    -0.00   0.00   0.00     0.00   0.00   0.00
     4   6     0.00   0.00   0.01     0.00  -0.02   0.00    -0.02  -0.00   0.00
     5   6     0.00   0.00  -0.15     0.00  -0.05  -0.00    -0.05  -0.00  -0.00
     6   1    -0.00  -0.00  -0.01     0.00  -0.00  -0.00    -0.00  -0.00  -0.00
     7   1    -0.00   0.24   0.52    -0.00  -0.17  -0.38     0.70  -0.00  -0.00
     8   1     0.21  -0.12   0.52     0.38   0.48   0.19     0.05   0.38  -0.33
     9   1    -0.21  -0.12   0.52    -0.38   0.48   0.19     0.05  -0.38   0.33
                     16                     17                     18
                     A1                     A1                     A1
 Frequencies --   2164.4869              2342.2720              3025.7048
 Red. masses --      6.6330                10.8705                 1.0340
 Frc consts  --     18.3093                35.1377                 5.5771
 IR Inten    --      6.6641                35.4366                20.8943
  Atom  AN      X      Y      Z        X      Y      Z        X      Y      Z
     1   6    -0.00   0.00  -0.38    -0.00   0.00   0.15     0.00   0.00  -0.00
     2   6     0.00  -0.00   0.52    -0.00   0.00  -0.34     0.00  -0.00   0.00
     3   6    -0.00   0.00   0.14     0.00   0.00   0.65    -0.00  -0.00  -0.00
     4   6    -0.00  -0.00  -0.27     0.00  -0.00  -0.57    -0.00  -0.00   0.00
     5   6     0.00   0.00   0.04    -0.00   0.00   0.07    -0.00  -0.00   0.05
     6   1    -0.00  -0.00  -0.70     0.00   0.00   0.31     0.00   0.00  -0.00
     7   1    -0.00  -0.00   0.03    -0.00   0.03   0.04    -0.00   0.54  -0.20
     8   1    -0.00   0.00   0.03     0.02  -0.01   0.04     0.47  -0.27  -0.20
     9   1     0.00   0.00   0.03    -0.02  -0.01   0.04    -0.47  -0.27  -0.20
                     19                     20                     21
                      E                      E                     A1
 Frequencies --   3083.5952              3083.5953              3473.7187
 Red. masses --      1.1008                 1.1008                 1.1530
 Frc consts  --      6.1667                 6.1667                 8.1971
 IR Inten    --      5.0803                 5.0803               109.0905
  Atom  AN      X      Y      Z        X      Y      Z        X      Y      Z
     1   6    -0.00   0.00   0.00     0.00   0.00   0.00     0.00   0.00  -0.11
     2   6     0.00  -0.00  -0.00    -0.00  -0.00  -0.00    -0.00  -0.00   0.03
     3   6     0.00  -0.00   0.00    -0.00  -0.00   0.00     0.00   0.00  -0.00
     4   6     0.00  -0.00  -0.00    -0.00  -0.00  -0.00     0.00  -0.00  -0.00
     5   6     0.00  -0.09  -0.00    -0.09  -0.00  -0.00    -0.00  -0.00   0.00
     6   1    -0.00   0.00  -0.00     0.00   0.00   0.00     0.00  -0.00   0.99
     7   1     0.00   0.76  -0.29    -0.02   0.00  -0.00     0.00   0.00   0.00
     8   1    -0.34   0.17   0.15     0.56  -0.34  -0.25     0.00  -0.00   0.00
     9   1     0.34   0.17   0.15     0.56   0.34   0.25    -0.00  -0.00   0.00

 -------------------
 - Thermochemistry -
 -------------------
[...]
                 (E) (E) (E) (E) (A1) (E) (E) (E) (E) (A1) (A1)
                 (E) (E) (A1) (A1) (E) (E) (A2) (E) (E) (A1) (E)
                 (E) (A1) (E) (E) (E) (E) (A1) (E) (E) (A1) (A1)
                 (A1) (A1) (A1) (A1) (E) (A1) (A1) (E) (A1) (E)
                 (A1) (A1) (E) (E) (E) (A1) (E) (A1) (A1) (E) (E)
                 (E) (A1) (E) (E) (A1) (E) (A1) (E) (A1) (E) (A1)
                 (A1) (E) (A1) (E) (A1) (A1) (A1) (E) (A1) (A1)
                 (E) (A1) (E) (A1) (E) (A1) (E) (E) (A1) (E) (E)
                 (A1) (E) (A1) (A1) (E) (E) (A1) (A1) (E) (A1)
                 (A1) (E) (A1) (E) (A1) (A1) (E) (E) (E) (A1) (E)
                 (A1) (E) (A1) (A1) (A1) (E) (E) (A1) (E) (A1)
                 (E) (A1) (A1) (E) (E) (E) (E) (E) (E) (E) (E)
                 (E) (E) (E) (A2) (E) (E) (E) (E) (E) (E) (A2)
                 (E) (E) (A2) (E) (E) (E) (E) (E) (E) (E) (E) (E)
                 (A2) (E) (E) (E) (A2) (E) (A2) (E) (E) (E) (E)
                 (E) (E) (E) (E)
 Requested convergence on RMS density matrix=1.00D-08 within 128 cycles.
 Requested convergence on MAX density matrix=1.00D-06.
 Requested convergence on             energy=1.00D-06.
 No special actions if energy rises.
 SCF Done:  E(ROHF) =  -191.622765928     A.U. after   11 cycles
            NFock= 11  Conv=0.42D-08     -V/T= 2.0012
 <Sx>= 0.0000 <Sy>= 0.0000 <Sz>= 0.0000 <S**2>=-0.0000 S=-0.0000
 <L.S>=  0.00000000000    
 Annihilation of the first spin contaminant:
 S**2 before annihilation    -0.0000,   after    -0.0000

 **********************************************************************

            Population analysis using the SCF Density.

 **********************************************************************

 Orbital symmetries:
       Occupied  (A1) (A1) (A1) (A1) (A1) (A1) (A1) (A1) (A1) (A1)
                 (A1) (E) (E) (E) (E) (E) (E)
       Virtual   (A1) (A1) (A1) (E) (E) (E) (E) (A1) (E) (E) (E)
                 (E) (A1) (A1) (E) (E) (A1) (A1) (E) (E) (A1) (E)
                 (E) (A1) (A1) (E) (E) (A1) (E) (E) (A1) (E) (E)
                 (A1) (A1) (E) (E) (A1) (A1) (E) (E) (E) (E) (A1)
                 (A1) (E) (E) (A1) (A2) (E) (E) (E) (E) (A1) (E)
                 (E) (A1) (A1) (E) (E) (E) (E) (E) (E) (A1) (A1)
                 (A1) (E) (E) (A1) (E) (E) (A1) (E) (E) (A1) (A1)
                 (E) (E) (E) (E) (A1) (E) (E) (A1) (A2) (A1) (E)
                 (E) (E) (E) (A2) (A1) (E) (E) (A1) (A2) (A1) (E)
                 (E) (A1) (A2) (A1) (A1) (E) (E) (E) (E) (E) (E)
                 (A1) (A1) (A2) (E) (E) (A1) (A1) (E) (E) (A1)
                 (E) (E) (E) (E) (A1) (E) (E) (A2) (A1) (E) (E)
                 (A1) (E) (E) (E) (E) (A1) (A1) (E) (E) (E) (E)
                 (E) (E) (A1) (E) (E) (E) (E) (E) (E) (A1) (A2)
                 (E) (E) (E) (E) (A1) (A1) (E) (E) (E) (E) (A2)
                 (E) (E) (E) (E) (A1) (E) (E) (A1) (E) (E) (E)
                 (E) (E) (E) (A1) (A1) (A1) (E) (E) (E) (E) (A1)
                 (A1) (A1) (A1) (E) (E) (A1) (E) (E) (A1) (E) (E)
                 (E) (E) (E) (E) (A1) (A1) (E) (E) (A1) (E) (E)
                 (A1) (A2) (A1) (A2) (A1) (A1) (E) (E) (E) (E)
                 (A2) (A1) (A2) (A1) (A2) (E) (E) (A1) (E) (E)
                 (A1) (E) (E) (E) (E) (A1) (A1) (E) (E) (A1) (E)
                 (E) (E) (E) (E) (E) (E) (E) (A2) (A1) (E) (E)
                 (E) (E) (A1) (E) (E) (E) (E) (A1) (E) (E) (A1)
                 (A1) (E) (E) (A1) (A1) (E) (E) (A1) (E) (E) (E)
                 (E) (E) (E) (E) (E) (E) (E) (A1) (E) (E) (E) (E)
                 (E) (E) (E) (E) (A1) (E) (E) (A1) (A1) (E) (E)
                 (A1) (A1) (A1) (A1) (A1) (E) (E) (E) (E) (E) (E)
                 (E) (E) (E) (E) (A1) (A1) (A1) (A1) (A1) (A1)
                 (A1) (A1) (A1) (A1)
 The electronic state is 1-A1.
 Alpha  occ. eigenvalues --  -11.25848 -11.25497 -11.25451 -11.24343 -11.24317
 Alpha  occ. eigenvalues --   -1.09286  -1.04317  -0.97093  -0.82449  -0.70871
 Alpha  occ. eigenvalues --   -0.64409  -0.60268  -0.60268  -0.47626  -0.47626
 Alpha  occ. eigenvalues --   -0.35180  -0.35180
 Alpha virt. eigenvalues --    0.04094   0.05119   0.07011   0.07108   0.07108
 Alpha virt. eigenvalues --    0.08046   0.08046   0.09235   0.11262   0.11262
 Alpha virt. eigenvalues --    0.12762   0.12762   0.13447   0.16307   0.17210
 Alpha virt. eigenvalues --    0.17210   0.18794   0.19709   0.20739   0.20739
 Alpha virt. eigenvalues --    0.21584   0.21981   0.21981   0.25426   0.27719
 Alpha virt. eigenvalues --    0.32285   0.32285   0.33543   0.34828   0.34828
 Alpha virt. eigenvalues --    0.37370   0.41470   0.41470   0.41853   0.43639
 Alpha virt. eigenvalues --    0.46708   0.46708   0.47783   0.48917   0.50501
 Alpha virt. eigenvalues --    0.50501   0.51497   0.51497   0.51791   0.55142
 Alpha virt. eigenvalues --    0.58372   0.58372   0.59155   0.60241   0.61268
 Alpha virt. eigenvalues --    0.61268   0.62633   0.62633   0.66556   0.68584
 Alpha virt. eigenvalues --    0.68584   0.73729   0.76659   0.76934   0.76934
 Alpha virt. eigenvalues --    0.79571   0.79571   0.82415   0.82415   0.85206
 Alpha virt. eigenvalues --    0.88183   0.93158   0.95346   0.95346   0.96980
 Alpha virt. eigenvalues --    1.00572   1.00572   1.02521   1.03120   1.03120
 Alpha virt. eigenvalues --    1.04975   1.09081   1.10900   1.10900   1.17381
 Alpha virt. eigenvalues --    1.17381   1.22834   1.26111   1.26111   1.26422
 Alpha virt. eigenvalues --    1.27146   1.28139   1.31401   1.31401   1.33982
 Alpha virt. eigenvalues --    1.33982   1.36586   1.39497   1.44541   1.44541
 Alpha virt. eigenvalues --    1.45812   1.48600   1.49756   1.51728   1.51728
 Alpha virt. eigenvalues --    1.51921   1.55212   1.57387   1.62706   1.63833
 Alpha virt. eigenvalues --    1.63833   1.66476   1.66476   1.67113   1.67113
 Alpha virt. eigenvalues --    1.67895   1.73802   1.77909   1.79000   1.79000
 Alpha virt. eigenvalues --    1.80185   1.84089   1.84125   1.84125   1.84863
 Alpha virt. eigenvalues --    1.89027   1.89027   1.94781   1.94781   1.97480
 Alpha virt. eigenvalues --    1.99313   1.99313   1.99403   2.01170   2.04009
 Alpha virt. eigenvalues --    2.04009   2.06318   2.09747   2.09747   2.12090
 Alpha virt. eigenvalues --    2.12090   2.16582   2.19606   2.19735   2.19735
 Alpha virt. eigenvalues --    2.23220   2.23220   2.30505   2.30505   2.32676
 Alpha virt. eigenvalues --    2.34422   2.34422   2.38191   2.38191   2.45162
 Alpha virt. eigenvalues --    2.45162   2.48832   2.53346   2.53466   2.53466
 Alpha virt. eigenvalues --    2.58411   2.58411   2.61400   2.64905   2.68251
 Alpha virt. eigenvalues --    2.68251   2.73259   2.73259   2.77879   2.81508
 Alpha virt. eigenvalues --    2.81508   2.82599   2.82599   2.91011   2.91177
 Alpha virt. eigenvalues --    2.91177   2.94273   3.02913   3.02913   3.07045
 Alpha virt. eigenvalues --    3.07045   3.12332   3.12332   3.13653   3.17348
 Alpha virt. eigenvalues --    3.23812   3.28925   3.28925   3.32238   3.32238
 Alpha virt. eigenvalues --    3.33587   3.38950   3.44446   3.49904   3.50943
 Alpha virt. eigenvalues --    3.50943   3.56840   3.59549   3.59549   3.60551
 Alpha virt. eigenvalues --    3.62563   3.62563   3.79858   3.79858   3.83135
 Alpha virt. eigenvalues --    3.83135   3.84337   3.91498   4.02174   4.02174
 Alpha virt. eigenvalues --    4.11656   4.34241   4.34241   4.39893   4.46177
 Alpha virt. eigenvalues --    4.46901   4.54065   4.55600   4.59229   4.66641
 Alpha virt. eigenvalues --    4.66641   4.72657   4.72657   4.74827   4.76485
 Alpha virt. eigenvalues --    4.88019   4.90416   4.95233   5.03222   5.03222
 Alpha virt. eigenvalues --    5.04851   5.07041   5.07041   5.27958   5.45408
 Alpha virt. eigenvalues --    5.45408   5.52656   5.52656   5.67301   5.71237
 Alpha virt. eigenvalues --    5.72672   5.72672   5.79644   5.82013   5.82013
 Alpha virt. eigenvalues --    5.87834   5.87834   5.98816   5.98816   6.06877
 Alpha virt. eigenvalues --    6.06877   6.15743   6.19357   6.20119   6.20119
 Alpha virt. eigenvalues --    6.21761   6.21761   6.29677   6.32893   6.32893
 Alpha virt. eigenvalues --    6.40811   6.40811   6.48067   6.73054   6.73054
 Alpha virt. eigenvalues --    6.97766   7.07056   7.15925   7.15925   7.18580
 Alpha virt. eigenvalues --    7.32023   7.64007   7.64007   7.79949   7.80925
 Alpha virt. eigenvalues --    7.80925   7.89275   7.89275   7.92764   7.92764
 Alpha virt. eigenvalues --    8.07304   8.07304   8.33242   8.33242   8.40488
 Alpha virt. eigenvalues --    8.49979   8.49979   8.81780   8.81780   8.91441
 Alpha virt. eigenvalues --    8.91441   9.14316   9.14316   9.17925   9.21311
 Alpha virt. eigenvalues --    9.21311   9.35345   9.41384   9.62152   9.62152
 Alpha virt. eigenvalues --    9.63237   9.64418   9.76291  10.10478  10.56710
 Alpha virt. eigenvalues --   21.14150  21.14150  21.31641  21.31641  21.36685
 Alpha virt. eigenvalues --   21.36685  21.49886  21.49886  21.61005  21.61005
 Alpha virt. eigenvalues --   21.65356  21.92753  22.28533  22.50257  22.63768
 Alpha virt. eigenvalues --   22.83881  23.38555  24.27436  26.59038  26.86521
          Condensed to atoms (all electrons):
               1          2          3          4          5          6
     1  C    5.430628   0.925107  -0.203309  -0.059658   0.003745   0.466230
     2  C    0.925107   4.831484   0.416930  -0.339478  -0.027982  -0.040093
     3  C   -0.203309   0.416930   4.988484   0.705289  -0.147768  -0.018973
     4  C   -0.059658  -0.339478   0.705289   5.658351   0.398266  -0.001397
     5  C    0.003745  -0.027982  -0.147768   0.398266   4.878862   0.000138
     6  H    0.466230  -0.040093  -0.018973  -0.001397   0.000138   0.333442
     7  H    0.000066   0.001041  -0.001857  -0.060831   0.418636   0.000000
     8  H    0.000066   0.001041  -0.001857  -0.060831   0.418636   0.000000
     9  H    0.000066   0.001041  -0.001857  -0.060831   0.418636   0.000000
               7          8          9
     1  C    0.000066   0.000066   0.000066
     2  C    0.001041   0.001041   0.001041
     3  C   -0.001857  -0.001857  -0.001857
     4  C   -0.060831  -0.060831  -0.060831
     5  C    0.418636   0.418636   0.418636
     6  H    0.000000   0.000000   0.000000
     7  H    0.605554  -0.039056  -0.039056
     8  H   -0.039056   0.605554  -0.039056
     9  H   -0.039056  -0.039056   0.605554
          Atomic-Atomic Spin Densities.
               1          2          3          4          5          6
     1  C    0.000000   0.000000   0.000000  -0.000000   0.000000   0.000000
     2  C    0.000000   0.000000   0.000000  -0.000000  -0.000000  -0.000000
     3  C    0.000000   0.000000   0.000000   0.000000  -0.000000  -0.000000
     4  C   -0.000000  -0.000000   0.000000   0.000000   0.000000  -0.000000
     5  C    0.000000  -0.000000  -0.000000   0.000000   0.000000   0.000000
     6  H    0.000000  -0.000000  -0.000000  -0.000000   0.000000   0.000000
     7  H    0.000000   0.000000   0.000000   0.000000   0.000000   0.000000
     8  H    0.000000   0.000000  -0.000000   0.000000   0.000000   0.000000
     9  H    0.000000   0.000000   0.000000   0.000000   0.000000   0.000000
               7          8          9
     1  C    0.000000   0.000000   0.000000
     2  C    0.000000   0.000000   0.000000
     3  C    0.000000  -0.000000   0.000000
     4  C    0.000000   0.000000   0.000000
     5  C    0.000000   0.000000   0.000000
     6  H    0.000000   0.000000   0.000000
     7  H    0.000000  -0.000000  -0.000000
     8  H   -0.000000   0.000000  -0.000000
     9  H   -0.000000  -0.000000   0.000000
 Mulliken charges and spin densities:
               1          2
     1  C   -0.562941   0.000000
     2  C    0.230907   0.000000
     3  C    0.264918   0.000000
     4  C   -0.178879   0.000000
     5  C   -0.361168   0.000000
     6  H    0.260652   0.000000
     7  H    0.115504   0.000000
     8  H    0.115504   0.000000
     9  H    0.115504   0.000000
 Sum of Mulliken charges =  -0.00000   0.00000
 Mulliken charges and spin densities with hydrogens summed into heavy atoms:
               1          2
     1  C   -0.302289   0.000000
     2  C    0.230907   0.000000
     3  C    0.264918   0.000000
     4  C   -0.178879   0.000000
     5  C   -0.014657   0.000000
 Electronic spatial extent (au):  <R**2>=            577.7130
 Charge=             -0.0000 electrons
 Dipole moment (field-independent basis, Debye):
    X=             -0.0000    Y=              0.0000    Z=             -1.2352  Tot=              1.2352
 Quadrupole moment (field-independent basis, Debye-Ang):
   XX=            -31.2668   YY=            -31.2668   ZZ=            -16.9492
   XY=              0.0000   XZ=             -0.0000   YZ=             -0.0000
 Traceless Quadrupole moment (field-independent basis, Debye-Ang):
   XX=             -4.7725   YY=             -4.7725   ZZ=              9.5450
   XY=              0.0000   XZ=             -0.0000   YZ=             -0.0000
 Octapole moment (field-independent basis, Debye-Ang**2):
  XXX=             -0.0000  YYY=              0.7318  ZZZ=             15.5299  XYY=              0.0000
  XXY=             -0.7318  XXZ=             -5.7999  XZZ=             -0.0000  YZZ=             -0.0000
  YYZ=             -5.7999  XYZ=             -0.0000
 Hexadecapole moment (field-independent basis, Debye-Ang**3):
 XXXX=            -42.9942 YYYY=            -42.9942 ZZZZ=           -535.8272 XXXY=              0.0000
 XXXZ=              0.0000 YYYX=              0.0000 YYYZ=             -2.2047 ZZZX=              0.0000
 ZZZY=             -0.0000 XXYY=            -14.3314 XXZZ=           -133.9114 YYZZ=           -133.9114
 XXYZ=              2.2047 YYXZ=             -0.0000 ZZXY=             -0.0000
 N-N= 1.216831356537D+02 E-N=-6.892106148633D+02  KE= 1.913994151878D+02
 Symmetry A'   KE= 1.851116186284D+02
 Symmetry A"   KE= 6.287796559367D+00
 Symmetry A'   SP= 3.506263152313D-15
 Symmetry A"   SP= 6.902739126160D-16
                          Isotropic Fermi Contact Couplings
        Atom                 a.u.       MegaHertz       Gauss      10(-4) cm-1
     1  C(13)              0.00000       0.00000       0.00000       0.00000
     2  C(13)              0.00000       0.00000       0.00000       0.00000
     3  C(13)              0.00000       0.00000       0.00000       0.00000
     4  C(13)              0.00000       0.00000       0.00000       0.00000
     5  C(13)              0.00000       0.00000       0.00000       0.00000
     6  H(1)               0.00000       0.00000       0.00000       0.00000
     7  H(1)               0.00000       0.00000       0.00000       0.00000
     8  H(1)               0.00000       0.00000       0.00000       0.00000
     9  H(1)               0.00000       0.00000       0.00000       0.00000
 --------------------------------------------------------
       Center         ----  Spin Dipole Couplings  ----
                      3XX-RR        3YY-RR        3ZZ-RR
 --------------------------------------------------------
     1   Atom        0.000000      0.000000      0.000000
     2   Atom        0.000000      0.000000      0.000000
     3   Atom        0.000000      0.000000      0.000000
     4   Atom        0.000000      0.000000      0.000000
     5   Atom        0.000000      0.000000      0.000000
     6   Atom        0.000000      0.000000      0.000000
     7   Atom        0.000000      0.000000      0.000000
     8   Atom        0.000000      0.000000      0.000000
     9   Atom        0.000000      0.000000      0.000000
 --------------------------------------------------------
                        XY            XZ            YZ
 --------------------------------------------------------
     1   Atom        0.000000      0.000000      0.000000
     2   Atom        0.000000      0.000000      0.000000
     3   Atom        0.000000      0.000000      0.000000
     4   Atom        0.000000      0.000000      0.000000
     5   Atom        0.000000      0.000000      0.000000
     6   Atom        0.000000      0.000000      0.000000
     7   Atom        0.000000      0.000000      0.000000
     8   Atom        0.000000      0.000000      0.000000
     9   Atom        0.000000      0.000000      0.000000
 --------------------------------------------------------


 ---------------------------------------------------------------------------------
              Anisotropic Spin Dipole Couplings in Principal Axis System
 ---------------------------------------------------------------------------------

       Atom             a.u.   MegaHertz   Gauss  10(-4) cm-1        Axes

              Baa     0.0000     0.000     0.000     0.000  1.0000  0.0000  0.0000
     1 C(13)  Bbb     0.0000     0.000     0.000     0.000 -0.0000  1.0000  0.0000
              Bcc     0.0000     0.000     0.000     0.000  0.0000  0.0000  1.0000
 
              Baa     0.0000     0.000     0.000     0.000  1.0000  0.0000  0.0000
     2 C(13)  Bbb     0.0000     0.000     0.000     0.000 -0.0000  1.0000  0.0000
              Bcc     0.0000     0.000     0.000     0.000  0.0000  0.0000  1.0000
 
              Baa     0.0000     0.000     0.000     0.000  1.0000  0.0000  0.0000
     3 C(13)  Bbb     0.0000     0.000     0.000     0.000 -0.0000  1.0000  0.0000
              Bcc     0.0000     0.000     0.000     0.000  0.0000  0.0000  1.0000
 
              Baa     0.0000     0.000     0.000     0.000  1.0000  0.0000  0.0000
     4 C(13)  Bbb     0.0000     0.000     0.000     0.000 -0.0000  1.0000  0.0000
              Bcc     0.0000     0.000     0.000     0.000  0.0000  0.0000  1.0000
 
              Baa     0.0000     0.000     0.000     0.000  1.0000  0.0000  0.0000
     5 C(13)  Bbb     0.0000     0.000     0.000     0.000 -0.0000  1.0000  0.0000
              Bcc     0.0000     0.000     0.000     0.000  0.0000  0.0000  1.0000
 
              Baa     0.0000     0.000     0.000     0.000  1.0000  0.0000  0.0000
     6 H(1)   Bbb     0.0000     0.000     0.000     0.000 -0.0000  1.0000  0.0000
              Bcc     0.0000     0.000     0.000     0.000  0.0000  0.0000  1.0000
 
              Baa     0.0000     0.000     0.000     0.000  1.0000  0.0000  0.0000
     7 H(1)   Bbb     0.0000     0.000     0.000     0.000 -0.0000  1.0000  0.0000
              Bcc     0.0000     0.000     0.000     0.000  0.0000  0.0000  1.0000
 
              Baa     0.0000     0.000     0.000     0.000  1.0000  0.0000  0.0000
     8 H(1)   Bbb     0.0000     0.000     0.000     0.000 -0.0000  1.0000  0.0000
              Bcc     0.0000     0.000     0.000     0.000  0.0000  0.0000  1.0000
 
              Baa     0.0000     0.000     0.000     0.000  1.0000  0.0000  0.0000
     9 H(1)   Bbb     0.0000     0.000     0.000     0.000 -0.0000  1.0000  0.0000
              Bcc     0.0000     0.000     0.000     0.000  0.0000  0.0000  1.0000
 

 ---------------------------------------------------------------------------------

 1\1\GINC-GAMBA\SP\ROHF\Gen\C5H4\IRIKURA\29-Sep-2023\0\\# rohf/gen geom
 =check guess=check\\1,3-pentadiyne, ROHF/cc-pVTZ-F12\\0,1\C,0,0.,0.,2.
 718814\C,0,0.,0.,1.513447\C,0,0.,0.,0.150166\C,0,0.,0.,-1.056703\C,0,0
 .,0.,-2.506792\H,0,0.,0.,3.779818\H,0,0.0000000138,1.019074,-2.897803\
 H,0,0.8825439654,-0.509537012,-2.897803\H,0,-0.8825439793,-0.509536988
 ,-2.897803\\Version=ES64L-G16RevB.01\State=1-A1\HF=-191.6227659\RMSD=4
 .212e-09\Dipole=0.,0.,-0.4859555\Quadrupole=-3.5482544,-3.5482544,7.09
 65088,0.,0.,0.\PG=C03V [C3(C1C1C1C1C1H1),3SGV(H1)]\\@


 Spring appears, and we are once more children.
                                  -- Anonymous
 Job cpu time:       0 days  0 hours  5 minutes 41.1 seconds.
 Elapsed time:       0 days  0 hours  1 minutes 25.4 seconds.
 File lengths (MBytes):  RWF=     84 Int=      0 D2E=      0 Chk=     10 Scr=      1
 Normal termination of Gaussian 16 at Fri Sep 29 09:26:01 2023.
