 Entering Gaussian System, Link 0=g16
 AtFile(1): pcseg2.gbs
            -H     0
            S   4   1.00
                  0.754732D+02           0.427821D-02
                  0.113575D+02           0.328672D-01
                  0.260081D+01           0.159578D+00
                  0.735503D+00           0.500000D+00
            S   1   1.00
                  0.231761D+00           1.0000000
            S   1   1.00
                  0.741675D-01           1.0000000
            P   1   1.00
                  0.160000D+01           1.0000000
            P   1   1.00
                  0.450000D+00           1.0000000
            D   1   1.00
                  0.125000D+01           1.0000000
            ****
            -C     0
            S   7   1.00
                  0.731999D+04           0.695369D-03
                  0.109818D+04           0.537138D-02
                  0.250014D+03           0.274734D-01
                  0.707586D+02           0.105078D+00
                  0.228595D+02           0.291262D+00
                  0.803936D+01           0.500000D+00
                  0.289309D+01           0.362224D+00
            S   2   1.00
                  0.521640D+01          -0.957844D-01
                  0.556124D+00           0.500000D+00
            S   1   1.00
                  0.228813D+00           1.0000000
            S   1   1.00
                  0.936338D-01           1.0000000
            P   4   1.00
                  0.339855D+02           0.818395D-02
                  0.772957D+01           0.586921D-01
                  0.224954D+01           0.222514D+00
                  0.767681D+00           0.500000D+00
            P   1   1.00
                  0.263283D+00           1.0000000
            P   1   1.00
                  0.848744D-01           1.0000000
            D   1   1.00
                  0.140000D+01           1.0000000
            D   1   1.00
                  0.450000D+00           1.0000000
            F   1   1.00
                  0.950000D+00           1.0000000
            ****
            -O     0
            S   7   1.00
                  0.135887D+05           0.665492D-03
                  0.203847D+04           0.514222D-02
                  0.464041D+03           0.263472D-01
                  0.131339D+03           0.101500D+00
                  0.425340D+02           0.285877D+00
                  0.150429D+02           0.500000D+00
                  0.546616D+01           0.368211D+00
            S   2   1.00
                  0.100915D+02          -0.100084D+00
                  0.110429D+01           0.500000D+00
            S   1   1.00
                  0.448082D+00           1.0000000
            S   1   1.00
                  0.175325D+00           1.0000000
            P   4   1.00
                  0.608220D+02           0.908253D-02
                  0.140332D+02           0.645878D-01
                  0.418244D+01           0.241502D+00
                  0.142490D+01           0.500000D+00
            P   1   1.00
                  0.478741D+00           1.0000000
            P   1   1.00
                  0.146257D+00           1.0000000
            D   1   1.00
                  0.220000D+01           1.0000000
            D   1   1.00
                  0.650000D+00           1.0000000
            F   1   1.00
                  0.110000D+01           1.0000000
            ****
            -N     0
            S   7   1.00
                  0.101643D+05           0.682757D-03
                  0.152481D+04           0.527488D-02
                  0.347119D+03           0.270037D-01
                  0.982389D+02           0.103673D+00
                  0.317799D+02           0.289575D+00
                  0.112240D+02           0.500000D+00
                  0.406611D+01           0.364621D+00
            S   2   1.00
                  0.747898D+01          -0.975681D-01
                  0.805040D+00           0.500000D+00
            S   1   1.00
                  0.324626D+00           1.0000000
            S   1   1.00
                  0.128132D+00           1.0000000
            P   4   1.00
                  0.482704D+02           0.829547D-02
                  0.110815D+02           0.596223D-01
                  0.326643D+01           0.227889D+00
                  0.111680D+01           0.500000D+00
            P   1   1.00
                  0.382049D+00           1.0000000
            P   1   1.00
                  0.121222D+00           1.0000000
            D   1   1.00
                  0.180000D+01           1.0000000
            D   1   1.00
                  0.550000D+00           1.0000000
            F   1   1.00
                  0.102000D+01           1.0000000
            ****
            -F     0
            S   7   1.00
                  0.174507D+05           0.655972D-03
                  0.261768D+04           0.506944D-02
                  0.595857D+03           0.259899D-01
                  0.168651D+03           0.100353D+00
                  0.546654D+02           0.284095D+00
                  0.193717D+02           0.500000D+00
                  0.706202D+01           0.370721D+00
            S   2   1.00
                  0.131197D+02          -0.101997D+00
                  0.145046D+01           0.500000D+00
            S   1   1.00
                  0.588255D+00           1.0000000
            S   1   1.00
                  0.227960D+00           1.0000000
            P   4   1.00
                  0.779407D+02           0.931135D-02
                  0.180425D+02           0.663964D-01
                  0.542342D+01           0.246386D+00
                  0.184876D+01           0.500000D+00
            P   1   1.00
                  0.617455D+00           1.0000000
            P   1   1.00
                  0.185496D+00           1.0000000
            D   1   1.00
                  0.280000D+01           1.0000000
            D   1   1.00
                  0.800000D+00           1.0000000
            F   1   1.00
                  0.120000D+01           1.0000000
            ****
            -Cl     0
            S   8   1.00
                  0.154272D+06           0.222473D-03
                  0.231232D+05           0.172590D-02
                  0.526257D+04           0.899286D-02
                  0.148995D+04           0.367724D-01
                  0.485417D+03           0.121446D+00
                  0.174634D+03           0.304148D+00
                  0.672393D+02           0.500000D+00
                  0.265780D+02           0.360252D+00
            S   3   1.00
                  0.131826D+03          -0.531330D-01
                  0.400703D+02          -0.233346D+00
                  0.789448D+01           0.500000D+00
            S   2   1.00
                  0.427711D+01           0.500000D+00
                  0.196233D+01           0.370517D+00
            S   1   1.00
                  0.520793D+00           1.0000000
            S   1   1.00
                  0.181633D+00           1.0000000
            P   7   1.00
                  0.124440D+04           0.988206D-03
                  0.295109D+03           0.829674D-02
                  0.947224D+02           0.430906D-01
                  0.352588D+02           0.148443D+00
                  0.144211D+02           0.344744D+00
                  0.610371D+01           0.500000D+00
                  0.258886D+01           0.348278D+00
            P   2   1.00
                  0.109447D+02          -0.196768D-01
                  0.104413D+01           0.500000D+00
            P   1   1.00
                  0.376184D+00           1.0000000
            P   1   1.00
                  0.120613D+00           1.0000000
            D   1   1.00
                  0.231000D+01           1.0000000
            D   1   1.00
                  0.520000D+00           1.0000000
            F   1   1.00
                  0.720000D+00           1.0000000
            ****
            -S     0
            S   8   1.00
                  0.134700D+06           0.226231D-03
                  0.201904D+05           0.175488D-02
                  0.459528D+04           0.914190D-02
                  0.130109D+04           0.373551D-01
                  0.423902D+03           0.123121D+00
                  0.152485D+03           0.306801D+00
                  0.586925D+02           0.500000D+00
                  0.231461D+02           0.354358D+00
            S   3   1.00
                  0.116327D+03          -0.491772D-01
                  0.352841D+02          -0.215962D+00
                  0.677831D+01           0.500000D+00
            S   2   1.00
                  0.360404D+01           0.500000D+00
                  0.164871D+01           0.366278D+00
            S   1   1.00
                  0.421821D+00           1.0000000
            S   1   1.00
                  0.147554D+00           1.0000000
            P   7   1.00
                  0.104863D+04           0.105273D-02
                  0.248717D+03           0.879338D-02
                  0.797887D+02           0.453358D-01
                  0.296023D+02           0.154476D+00
                  0.120627D+02           0.352366D+00
                  0.507628D+01           0.500000D+00
                  0.213375D+01           0.346429D+00
            P   2   1.00
                  0.928958D+01          -0.185932D-01
                  0.837819D+00           0.500000D+00
            P   1   1.00
                  0.301495D+00           1.0000000
            P   1   1.00
                  0.974740D-01           1.0000000
            D   1   1.00
                  0.210000D+01           1.0000000
            D   1   1.00
                  0.480000D+00           1.0000000
            F   1   1.00
                  0.660000D+00           1.0000000
            ****
            -Br     0
            S    10   1.00
                  0.233625D+07           0.532336D-04
                  0.349961D+06           0.413715D-03
                  0.796444D+05           0.217123D-02
                  0.225555D+05           0.910109D-02
                  0.735546D+04           0.323789D-01
                  0.265352D+04           0.988755D-01
                  0.103517D+04           0.248138D+00
                  0.422205D+03           0.474328D+00
                  0.180035D+03           0.500000D+00
                  0.793308D+02           0.187769D+00
            S    4   1.00
                  0.620834D+03          -0.226511D-01
                  0.190829D+03          -0.109497D+00
                  0.312505D+02           0.500000D+00
                  0.135270D+02           0.492812D+00
            S    2   1.00
                  0.216097D+02          -0.165418D+00
                  0.372566D+01           0.500000D+00
            S    1   1.00
                  0.169770D+01           1.0000000
            S    1   1.00
                  0.489332D+00           1.0000000
            S    1   1.00
                  0.175712D+00           1.0000000
            P    8   1.00
                  0.960829D+04           0.478974D-03
                  0.227618D+04           0.417853D-02
                  0.736723D+03           0.229315D-01
                  0.281579D+03           0.892653D-01
                  0.118395D+03           0.255288D+00
                  0.527481D+02           0.479074D+00
                  0.245098D+02           0.500000D+00
                  0.112009D+02           0.200944D+00
            P    4   1.00
                  0.587849D+02          -0.189674D-01
                  0.918962D+01           0.264104D+00
                  0.413895D+01           0.500000D+00
                  0.184225D+01           0.319316D+00
            P    1   1.00
                  0.713862D+00           1.0000000
            P    1   1.00
                  0.274232D+00           1.0000000
            P    1   1.00
                  0.944411D-01           1.0000000
            D    7   1.00
                  0.398470D+03           0.204066D-02
                  0.118967D+03           0.175171D-01
                  0.450197D+02           0.829708D-01
                  0.190320D+02           0.236284D+00
                  0.855686D+01           0.428468D+00
                  0.382950D+01           0.500000D+00
                  0.166291D+01           0.349360D+00
            D    1   1.00
                  0.672953D+00           1.0000000
            D    1   1.00
                  0.252000D+00           1.0000000
            F    1   1.00
                  0.530000D+00           1.0000000
            ****
            -Si     0
            S    8   1.00
                  0.996133D+05           0.235546D-03
                  0.149311D+05           0.182707D-02
                  0.339820D+04           0.951425D-02
                  0.962140D+03           0.388172D-01
                  0.313430D+03           0.127328D+00
                  0.112683D+03           0.313522D+00
                  0.433372D+02           0.500000D+00
                  0.170029D+02           0.340347D+00
            S    3   1.00
                  0.884208D+02          -0.404451D-01
                  0.266756D+02          -0.178059D+00
                  0.479640D+01           0.500000D+00
            S    2   1.00
                  0.239385D+01           0.500000D+00
                  0.108333D+01           0.338016D+00
            S    1   1.00
                  0.252420D+00           1.0000000
            S    1   1.00
                  0.891210D-01           1.0000000
            P    7   1.00
                  0.709901D+03           0.123028D-02
                  0.168426D+03           0.101366D-01
                  0.539946D+02           0.511840D-01
                  0.198646D+02           0.169967D+00
                  0.801369D+01           0.370717D+00
                  0.331870D+01           0.500000D+00
                  0.136112D+01           0.344128D+00
            P    2   1.00
                  0.622158D+01          -0.166609D-01
                  0.503049D+00           0.500000D+00
            P    1   1.00
                  0.179848D+00           1.0000000
            P    1   1.00
                  0.591912D-01           1.0000000
            D    1   1.00
                  0.168000D+01           1.0000000
            D    1   1.00
                  0.380000D+00           1.0000000
            F    1   1.00
                  0.540000D+00           1.0000000
            ****
            -P     0
            S    8   1.00
                  0.116416D+06           0.230715D-03
                  0.174500D+05           0.178960D-02
                  0.397149D+04           0.932116D-02
                  0.112447D+04           0.380591D-01
                  0.366347D+03           0.125148D+00
                  0.131757D+03           0.310022D+00
                  0.506988D+02           0.500000D+00
                  0.199436D+02           0.347528D+00
            S    3   1.00
                  0.101878D+03          -0.446755D-01
                  0.308249D+02          -0.196376D+00
                  0.573688D+01           0.500000D+00
            S    2   1.00
                  0.296868D+01           0.500000D+00
                  0.135315D+01           0.355098D+00
            S    1   1.00
                  0.332196D+00           1.0000000
            S    1   1.00
                  0.116229D+00           1.0000000
            P    7   1.00
                  0.873928D+03           0.112375D-02
                  0.207298D+03           0.933330D-02
                  0.664628D+02           0.477213D-01
                  0.245665D+02           0.160733D+00
                  0.996820D+01           0.359760D+00
                  0.416536D+01           0.500000D+00
                  0.173022D+01           0.346593D+00
            P    2   1.00
                  0.772530D+01          -0.175718D-01
                  0.657252D+00           0.500000D+00
            P    1   1.00
                  0.239903D+00           1.0000000
            P    1   1.00
                  0.800988D-01           1.0000000
            D    1   1.00
                  0.189000D+01           1.0000000
            D    1   1.00
                  0.430000D+00           1.0000000
            F    1   1.00
                  0.600000D+00           1.0000000
            ****
            
 Initial command:
 /usr/local/apps/g16_b01_avx/g16/l1.exe "/wrk/irikura/Gau-874729.inp" -scrdir="/wrk/irikura/"
 Entering Link 1 = /usr/local/apps/g16_b01_avx/g16/l1.exe PID=    874731.
  
 Copyright (c) 1988-2017, Gaussian, Inc.  All Rights Reserved.
  
 This is part of the Gaussian(R) 16 program.  It is based on
 the Gaussian(R) 09 system (copyright 2009, Gaussian, Inc.),
 the Gaussian(R) 03 system (copyright 2003, Gaussian, Inc.),
 the Gaussian(R) 98 system (copyright 1998, Gaussian, Inc.),
 the Gaussian(R) 94 system (copyright 1995, Gaussian, Inc.),
 the Gaussian 92(TM) system (copyright 1992, Gaussian, Inc.),
 the Gaussian 90(TM) system (copyright 1990, Gaussian, Inc.),
 the Gaussian 88(TM) system (copyright 1988, Gaussian, Inc.),
 the Gaussian 86(TM) system (copyright 1986, Carnegie Mellon
 University), and the Gaussian 82(TM) system (copyright 1983,
 Carnegie Mellon University). Gaussian is a federally registered
 trademark of Gaussian, Inc.
  
 This software contains proprietary and confidential information,
 including trade secrets, belonging to Gaussian, Inc.
  
 This software is provided under written license and may be
 used, copied, transmitted, or stored only in accord with that
 written license.
  
 The following legend is applicable only to US Government
 contracts under FAR:
  
                    RESTRICTED RIGHTS LEGEND
  
 Use, reproduction and disclosure by the US Government is
 subject to restrictions as set forth in subparagraphs (a)
 and (c) of the Commercial Computer Software - Restricted
 Rights clause in FAR 52.227-19.
  
 Gaussian, Inc.
 340 Quinnipiac St., Bldg. 40, Wallingford CT 06492
  
  
 ---------------------------------------------------------------
 Warning -- This program may not be used in any manner that
 competes with the business of Gaussian, Inc. or will provide
 assistance to any competitor of Gaussian, Inc.  The licensee
 of this program is prohibited from giving any competitor of
 Gaussian, Inc. access to this program.  By using this program,
 the user acknowledges that Gaussian, Inc. is engaged in the
 business of creating and licensing software in the field of
 computational chemistry and represents and warrants to the
 licensee that it is not a competitor of Gaussian, Inc. and that
 it will not use this program in any manner prohibited above.
 ---------------------------------------------------------------
  

 Cite this work as:
 Gaussian 16, Revision B.01,
 M. J. Frisch, G. W. Trucks, H. B. Schlegel, G. E. Scuseria, 
 M. A. Robb, J. R. Cheeseman, G. Scalmani, V. Barone, 
 G. A. Petersson, H. Nakatsuji, X. Li, M. Caricato, A. V. Marenich, 
 J. Bloino, B. G. Janesko, R. Gomperts, B. Mennucci, H. P. Hratchian, 
 J. V. Ortiz, A. F. Izmaylov, J. L. Sonnenberg, D. Williams-Young, 
 F. Ding, F. Lipparini, F. Egidi, J. Goings, B. Peng, A. Petrone, 
 T. Henderson, D. Ranasinghe, V. G. Zakrzewski, J. Gao, N. Rega, 
 G. Zheng, W. Liang, M. Hada, M. Ehara, K. Toyota, R. Fukuda, 
 J. Hasegawa, M. Ishida, T. Nakajima, Y. Honda, O. Kitao, H. Nakai, 
 T. Vreven, K. Throssell, J. A. Montgomery, Jr., J. E. Peralta, 
 F. Ogliaro, M. J. Bearpark, J. J. Heyd, E. N. Brothers, K. N. Kudin, 
 V. N. Staroverov, T. A. Keith, R. Kobayashi, J. Normand, 
 K. Raghavachari, A. P. Rendell, J. C. Burant, S. S. Iyengar, 
 J. Tomasi, M. Cossi, J. M. Millam, M. Klene, C. Adamo, R. Cammi, 
 J. W. Ochterski, R. L. Martin, K. Morokuma, O. Farkas, 
 J. B. Foresman, and D. J. Fox, Gaussian, Inc., Wallingford CT, 2016.
 
 ******************************************
 Gaussian 16:  ES64L-G16RevB.01 20-Dec-2017
                 3-Oct-2023 
 ******************************************
 %chk=mec4me.chk
 %mem=500mw
 %nprocs=4
 Will use up to    4 processors via shared memory.
 --------------------------------------------
 # b3lyp/gen opt=cart freq CPHF(Grid=OneStep)
 --------------------------------------------
 1/10=7,18=10,26=3,38=1/1,3;
 2/12=2,17=6,18=5,29=2,40=1/2;
 3/5=7,11=2,25=1,30=1,71=1,74=-5/1,2,3;
 4//1;
 5/5=2,38=5/2;
 6/7=2,8=2,9=2,10=2,28=1/1;
 7/7=1,29=1/1,2,3,16;
 1/10=7,18=10,26=3/3(2);
 2/29=1/2;
 99/12=1/99;
 2/29=1/2;
 3/5=7,6=1,11=2,25=1,30=1,71=1,74=-5,82=7/1,2,3;
 4/5=5,16=3,69=1/1;
 5/5=2,38=5/2;
 7/7=1/1,2,3,16;
 1/18=10,26=3/3(-5);
 2/29=1/2;
 6/7=2,8=2,9=2,10=2,19=2,28=1/1;
 99/9=1,12=1/99;
 ----------------------------
 2,4-hexadiyne, B3LYP/pcseg-2
 ----------------------------
 Symbolic Z-matrix:
 Charge =  0 Multiplicity = 1
 C                     0.        0.        0.68183 
 C                     0.        0.       -0.68183 
 C                     0.        0.        1.88938 
 C                     0.        0.       -1.88938 
 C                     0.        0.        3.34039 
 C                     0.        0.       -3.34039 
 H                     0.        1.01858   3.73346 
 H                    -0.88212  -0.50929   3.73346 
 H                     0.88212  -0.50929   3.73346 
 H                     0.        1.01858  -3.73346 
 H                     0.88212  -0.50929  -3.73346 
 H                    -0.88212  -0.50929  -3.73346 
 

 GradGradGradGradGradGradGradGradGradGradGradGradGradGradGradGradGradGrad
 Berny optimization.
 Initialization pass.
 No Z-matrix variables, so optimization will use Cartesian coordinates.
 Trust Radius=3.00D-01 FncErr=1.00D-07 GrdErr=1.00D-06 EigMax=2.50D+02 EigMin=1.00D-04
 Number of steps in this run=     46 maximum allowed number of steps=    100.
 GradGradGradGradGradGradGradGradGradGradGradGradGradGradGradGradGradGrad

 ---------------------------------------------------------------------------------------------------
                            Z-MATRIX (ANGSTROMS AND DEGREES)
   CD    Cent   Atom    N1       Length/X        N2       Alpha/Y        N3        Beta/Z          J
 ---------------------------------------------------------------------------------------------------
      1      1  C        0   0.000000          0.000000          0.681831
      2      2  C        0   0.000000          0.000000         -0.681831
      3      3  C        0   0.000000          0.000000          1.889376
      4      4  C        0   0.000000          0.000000         -1.889376
      5      5  C        0   0.000000          0.000000          3.340393
      6      6  C        0   0.000000          0.000000         -3.340393
      7      7  H        0   0.000000          1.018581          3.733455
      8      8  H        0  -0.882117         -0.509291          3.733455
      9      9  H        0   0.882117         -0.509291          3.733455
     10     10  H        0   0.000000          1.018581         -3.733455
     11     11  H        0   0.882117         -0.509291         -3.733455
     12     12  H        0  -0.882117         -0.509291         -3.733455
 ---------------------------------------------------------------------------------------------------
                         Z-Matrix orientation:                         
 ---------------------------------------------------------------------
 Center     Atomic      Atomic             Coordinates (Angstroms)
 Number     Number       Type             X           Y           Z
 ---------------------------------------------------------------------
      1          6           0        0.000000    0.000000    0.681831
      2          6           0        0.000000    0.000000   -0.681831
      3          6           0        0.000000    0.000000    1.889376
      4          6           0        0.000000    0.000000   -1.889376
      5          6           0        0.000000    0.000000    3.340393
      6          6           0        0.000000    0.000000   -3.340393
      7          1           0        0.000000    1.018581    3.733455
      8          1           0       -0.882117   -0.509291    3.733455
      9          1           0        0.882117   -0.509291    3.733455
     10          1           0        0.000000    1.018581   -3.733455
     11          1           0        0.882117   -0.509291   -3.733455
     12          1           0       -0.882117   -0.509291   -3.733455
 ---------------------------------------------------------------------
                    Distance matrix (angstroms):
                    1          2          3          4          5
     1  C    0.000000
     2  C    1.363662   0.000000
     3  C    1.207545   2.571207   0.000000
     4  C    2.571207   1.207545   3.778752   0.000000
     5  C    2.658562   4.022224   1.451017   5.229769   0.000000
     6  C    4.022224   2.658562   5.229769   1.451017   6.680786
     7  H    3.217129   4.531253   2.106688   5.714345   1.091790
     8  H    3.217129   4.531253   2.106688   5.714345   1.091790
     9  H    3.217129   4.531253   2.106688   5.714345   1.091790
    10  H    4.531253   3.217129   5.714345   2.106688   7.146806
    11  H    4.531253   3.217129   5.714345   2.106688   7.146806
    12  H    4.531253   3.217129   5.714345   2.106688   7.146806
                    6          7          8          9         10
     6  C    0.000000
     7  H    7.146806   0.000000
     8  H    7.146806   1.764234   0.000000
     9  H    7.146806   1.764234   1.764234   0.000000
    10  H    1.091790   7.466910   7.672501   7.672501   0.000000
    11  H    1.091790   7.672501   7.672501   7.466910   1.764234
    12  H    1.091790   7.672501   7.466910   7.672501   1.764234
                   11         12
    11  H    0.000000
    12  H    1.764234   0.000000
 Stoichiometry    C6H6
 Framework group  D3H[C3(CCC.CCC),3SGV(H2)]
 Deg. of freedom     5
 Full point group                 D3H     NOp  12
 Largest Abelian subgroup         C2V     NOp   4
 Largest concise Abelian subgroup C2V     NOp   4
                         Standard orientation:                         
 ---------------------------------------------------------------------
 Center     Atomic      Atomic             Coordinates (Angstroms)
 Number     Number       Type             X           Y           Z
 ---------------------------------------------------------------------
      1          6           0       -0.000000    0.000000    0.681831
      2          6           0        0.000000    0.000000   -0.681831
      3          6           0       -0.000000    0.000000    1.889376
      4          6           0        0.000000    0.000000   -1.889376
      5          6           0       -0.000000    0.000000    3.340393
      6          6           0        0.000000    0.000000   -3.340393
      7          1           0        0.000000    1.018581    3.733455
      8          1           0       -0.882117   -0.509291    3.733455
      9          1           0        0.882117   -0.509291    3.733455
     10          1           0        0.000000    1.018581   -3.733455
     11          1           0        0.882117   -0.509291   -3.733455
     12          1           0       -0.882117   -0.509291   -3.733455
 ---------------------------------------------------------------------
 Rotational constants (GHZ):          80.5544661           1.1179664           1.1179664
 General basis read from cards:  (5D, 7F)
 There are    98 symmetry adapted cartesian basis functions of A1  symmetry.
 There are    52 symmetry adapted cartesian basis functions of A2  symmetry.
 There are    52 symmetry adapted cartesian basis functions of B1  symmetry.
 There are    98 symmetry adapted cartesian basis functions of B2  symmetry.
 There are    84 symmetry adapted basis functions of A1  symmetry.
 There are    48 symmetry adapted basis functions of A2  symmetry.
 There are    48 symmetry adapted basis functions of B1  symmetry.
 There are    84 symmetry adapted basis functions of B2  symmetry.
   264 basis functions,   414 primitive gaussians,   300 cartesian basis functions
    21 alpha electrons       21 beta electrons
       nuclear repulsion energy       170.6235136307 Hartrees.
 NAtoms=   12 NActive=   12 NUniq=    4 SFac= 4.00D+00 NAtFMM=   60 NAOKFM=F Big=F
 Integral buffers will be    131072 words long.
 Raffenetti 2 integral format.
 Two-electron integral symmetry is turned on.
 One-electron integrals computed using PRISM.
 NBasis=   264 RedAO= T EigKep=  1.23D-05  NBF=    84    48    48    84
 NBsUse=   264 1.00D-06 EigRej= -1.00D+00 NBFU=    84    48    48    84
 ExpMin= 7.42D-02 ExpMax= 7.32D+03 ExpMxC= 2.50D+02 IAcc=3 IRadAn=         5 AccDes= 0.00D+00
 Harris functional with IExCor=  402 and IRadAn=       5 diagonalized for initial guess.
 HarFok:  IExCor=  402 AccDes= 0.00D+00 IRadAn=         5 IDoV= 1 UseB2=F ITyADJ=14
 ICtDFT=  3500011 ScaDFX=  1.000000  1.000000  1.000000  1.000000
 FoFCou: FMM=F IPFlag=           0 FMFlag=      100000 FMFlg1=           0
         NFxFlg=           0 DoJE=T BraDBF=F KetDBF=T FulRan=T
         wScrn=  0.000000 ICntrl=       500 IOpCl=  0 I1Cent=   200000004 NGrid=           0
         NMat0=    1 NMatS0=      1 NMatT0=    0 NMatD0=    1 NMtDS0=    0 NMtDT0=    0
 Petite list used in FoFCou.
 Initial guess orbital symmetries:
       Occupied  (A2") (A1') (A1') (A2") (A2") (A1') (A1') (A2")
                 (A1') (A2") (A1') (A2") (A1') (E') (E') (E") (E")
                 (E') (E') (E") (E")
       Virtual   (E') (E') (A1') (A2") (E") (E") (E') (E') (A1')
                 (A2") (E") (E") (A1') (A2") (A2") (E') (E') (A1')
                 (E") (E") (E') (E') (E") (E") (A2") (E') (E')
                 (A1') (E") (E") (A2") (E') (E') (A1') (A2") (E")
                 (E") (A1') (A2") (A1') (A2") (A1') (E') (E') (E')
                 (E') (E") (E") (A1') (A2") (E") (E") (E') (E')
                 (E") (E") (A2") (A2') (A1") (E') (E') (E') (E')
                 (E") (E") (E') (E') (A1') (A2") (E") (E") (E')
                 (E') (A1') (A2") (E") (E") (E') (E') (E") (E")
                 (A1') (A2") (E') (E') (A1') (E") (E") (A2") (E")
                 (E") (E') (E') (A1') (E") (E") (E') (E') (A2")
                 (A1') (E") (E") (A2") (A1') (E') (E') (A1') (A2")
                 (A2") (A1') (E") (E") (E') (E') (E") (E") (A2")
                 (A1') (E') (E') (A2") (A2') (A1') (A1") (E") (E")
                 (A2") (A2') (A1') (A1") (E') (E') (E') (E') (E")
                 (E") (A1') (A2") (A2') (A1') (E") (E") (A1") (A2")
                 (E') (E') (A1') (E") (E") (A2") (E') (E') (A2')
                 (A1") (E') (E') (E') (E') (E") (E") (E") (E")
                 (E') (E') (E') (E') (A2") (E") (E") (E') (E')
                 (E") (E") (E") (E") (A2") (A1') (E') (E') (E')
                 (E') (E") (E") (A1') (A2") (E") (E") (E') (E')
                 (A2') (A1") (E") (E") (A1') (A2") (E') (E') (A1')
                 (E") (E") (E') (E') (A1') (E") (E") (A2") (A1')
                 (A2") (E") (E") (E') (E') (E") (E") (A1') (A2")
                 (A2") (E') (E') (A2') (A1") (E") (E") (E') (E')
                 (A1') (A2") (E') (E') (E") (E") (A2") (A1') (E")
                 (E") (E') (E') (E") (E") (A2") (A1') (A1') (A2")
 The electronic state of the initial guess is 1-A1'.
 Requested convergence on RMS density matrix=1.00D-08 within 128 cycles.
 Requested convergence on MAX density matrix=1.00D-06.
 Requested convergence on             energy=1.00D-06.
 No special actions if energy rises.
 Integral accuracy reduced to 1.0D-05 until final iterations.
 Initial convergence to 1.0D-05 achieved.  Increase integral accuracy.
 SCF Done:  E(RB3LYP) =  -232.233404834     A.U. after   17 cycles
            NFock= 17  Conv=0.21D-08     -V/T= 2.0042

 **********************************************************************

            Population analysis using the SCF Density.

 **********************************************************************

 Orbital symmetries:
       Occupied  (A2") (A1') (A1') (A2") (A1') (A2") (A1') (A2")
                 (A1') (A2") (A1') (A2") (A1') (E') (E') (E") (E")
                 (E') (E') (E") (E")
       Virtual   (E') (E') (A1') (A2") (E") (E") (E') (E') (A1')
                 (A2") (A1') (E") (E") (E') (E') (A2") (E") (E")
                 (E') (E') (A2") (A1') (E") (E") (A2") (A1') (E')
                 (E') (E") (E") (A2") (E') (E') (A1') (A2") (E")
                 (E") (A1') (A2") (A1') (A2") (A1') (E') (E') (E')
                 (E') (E") (E") (A2") (E") (E") (A1') (E') (E')
                 (E") (E") (A1") (A2') (E') (E') (A2") (E') (E')
                 (E") (E") (E') (E') (A1') (A2") (E") (E") (A1')
                 (E') (E') (A2") (E") (E") (E") (E") (E') (E')
                 (A1') (A2") (E') (E') (A1') (E") (E") (E") (E")
                 (E') (E') (A2") (A1') (E") (E") (E') (E') (A2")
                 (A1') (A2") (A1') (E") (E") (E') (E') (A2") (A1')
                 (A2") (E") (E") (E') (E') (A1') (E") (E") (A2")
                 (A1') (E') (E') (A2") (A2') (A1') (A1") (A2")
                 (E") (E") (A2') (A1") (A1') (E') (E') (E') (E')
                 (E") (E") (A1') (A2') (A2") (A1') (E") (E") (A1")
                 (A2") (E') (E') (E") (E") (A1') (A2") (A2') (A1")
                 (E') (E') (E') (E') (E') (E') (E") (E") (E') (E')
                 (E") (E") (E') (E') (A2") (E") (E") (E') (E')
                 (E") (E") (E") (E") (A2") (A1') (E') (E') (E')
                 (E') (E") (E") (A1') (A2") (E") (E") (A2') (A1")
                 (E') (E') (E") (E") (A1') (A2") (E') (E') (A1')
                 (E") (E") (E') (E') (E") (E") (A2") (A1') (A1')
                 (A2") (E") (E") (E') (E') (E") (E") (A2") (A1')
                 (A2") (A2') (A1") (E') (E') (E") (E") (A1') (E')
                 (E') (A2") (E") (E") (E') (E') (A1') (A2") (E")
                 (E") (E') (E') (E") (E") (A2") (A1') (A1') (A2")
 The electronic state is 1-A1'.
 Alpha  occ. eigenvalues --  -10.19711 -10.19711 -10.18089 -10.18083 -10.17699
 Alpha  occ. eigenvalues --  -10.17636  -0.80384  -0.78360  -0.74062  -0.69316
 Alpha  occ. eigenvalues --   -0.59027  -0.47479  -0.46481  -0.44074  -0.44074
 Alpha  occ. eigenvalues --   -0.43825  -0.43825  -0.33348  -0.33348  -0.23941
 Alpha  occ. eigenvalues --   -0.23941
 Alpha virt. eigenvalues --   -0.01045  -0.01045   0.01290   0.01754   0.07142
 Alpha virt. eigenvalues --    0.07142   0.07960   0.07960   0.08204   0.10240
 Alpha virt. eigenvalues --    0.14229   0.15583   0.15583   0.17303   0.17303
 Alpha virt. eigenvalues --    0.17536   0.18941   0.18941   0.20302   0.20302
 Alpha virt. eigenvalues --    0.23861   0.24584   0.26393   0.26393   0.30494
 Alpha virt. eigenvalues --    0.33103   0.33785   0.33785   0.35261   0.35261
 Alpha virt. eigenvalues --    0.37294   0.37302   0.37302   0.39979   0.45785
 Alpha virt. eigenvalues --    0.47169   0.47169   0.48130   0.49534   0.50533
 Alpha virt. eigenvalues --    0.59148   0.65002   0.70885   0.70885   0.77548
 Alpha virt. eigenvalues --    0.77548   0.79361   0.79361   0.80781   0.88015
 Alpha virt. eigenvalues --    0.88015   0.91029   0.91850   0.91850   0.93884
 Alpha virt. eigenvalues --    0.93884   0.96495   0.96495   1.00567   1.00567
 Alpha virt. eigenvalues --    1.03663   1.05357   1.05357   1.06899   1.06899
 Alpha virt. eigenvalues --    1.11587   1.11587   1.11999   1.16416   1.17678
 Alpha virt. eigenvalues --    1.17678   1.21550   1.25421   1.25421   1.25872
 Alpha virt. eigenvalues --    1.30440   1.30440   1.33266   1.33266   1.33470
 Alpha virt. eigenvalues --    1.33470   1.33629   1.42562   1.48500   1.48500
 Alpha virt. eigenvalues --    1.52781   1.58769   1.58769   1.62338   1.62338
 Alpha virt. eigenvalues --    1.62585   1.62585   1.62882   1.65168   1.69342
 Alpha virt. eigenvalues --    1.69342   1.71080   1.71080   1.71389   1.73601
 Alpha virt. eigenvalues --    1.83412   1.85548   1.85681   1.85681   2.13221
 Alpha virt. eigenvalues --    2.13221   2.27645   2.28162   2.48359   2.49795
 Alpha virt. eigenvalues --    2.49795   2.50063   2.50063   2.51447   2.60855
 Alpha virt. eigenvalues --    2.60855   2.71665   2.82035   2.96236   2.96236
 Alpha virt. eigenvalues --    3.08357   3.12213   3.13408   3.20658   3.24250
 Alpha virt. eigenvalues --    3.24343   3.24343   3.26447   3.28582   3.29282
 Alpha virt. eigenvalues --    3.32298   3.32298   3.37888   3.37888   3.46432
 Alpha virt. eigenvalues --    3.46432   3.47025   3.50882   3.51522   3.52461
 Alpha virt. eigenvalues --    3.58515   3.58515   3.64857   3.65491   3.72685
 Alpha virt. eigenvalues --    3.72685   3.76654   3.76654   3.78174   3.78873
 Alpha virt. eigenvalues --    3.83392   3.83423   3.83614   3.83614   3.89238
 Alpha virt. eigenvalues --    3.89238   3.90268   3.90268   3.96488   3.96488
 Alpha virt. eigenvalues --    3.98025   3.98025   3.99552   3.99552   4.04543
 Alpha virt. eigenvalues --    4.04543   4.04667   4.06800   4.06800   4.13324
 Alpha virt. eigenvalues --    4.13324   4.20003   4.20003   4.22300   4.22300
 Alpha virt. eigenvalues --    4.28045   4.31645   4.34195   4.34195   4.38774
 Alpha virt. eigenvalues --    4.38774   4.39991   4.39991   4.44383   4.48791
 Alpha virt. eigenvalues --    4.58739   4.58739   4.61003   4.61006   4.63355
 Alpha virt. eigenvalues --    4.63355   4.66594   4.66594   4.66896   4.70252
 Alpha virt. eigenvalues --    4.72132   4.72132   4.75621   4.78127   4.78127
 Alpha virt. eigenvalues --    4.85395   4.85395   4.88221   4.88221   4.88667
 Alpha virt. eigenvalues --    4.90677   5.01545   5.06851   5.12314   5.12314
 Alpha virt. eigenvalues --    5.20504   5.20504   5.45529   5.45529   5.47726
 Alpha virt. eigenvalues --    5.47959   5.65310   5.75679   5.75684   5.76561
 Alpha virt. eigenvalues --    5.76561   5.80877   5.80877   5.81759   5.82288
 Alpha virt. eigenvalues --    5.82288   5.83129   5.86432   5.86432   5.87120
 Alpha virt. eigenvalues --    5.87120   5.99221   6.01781   6.07796   6.07796
 Alpha virt. eigenvalues --    6.12991   6.12991   6.14281   6.14281   6.48310
 Alpha virt. eigenvalues --    7.04522   8.33169  10.69739
          Condensed to atoms (all electrons):
               1          2          3          4          5          6
     1  C    4.896230   0.437554   0.946240  -0.140670  -0.040154   0.000525
     2  C    0.437554   4.896230  -0.140670   0.946240   0.000525  -0.040154
     3  C    0.946240  -0.140670   5.089704  -0.033023   0.272883   0.000157
     4  C   -0.140670   0.946240  -0.033023   5.089704   0.000157   0.272883
     5  C   -0.040154   0.000525   0.272883   0.000157   4.568249   0.000060
     6  C    0.000525  -0.040154   0.000157   0.272883   0.000060   4.568249
     7  H   -0.002022  -0.000016  -0.055213   0.000042   0.432404  -0.000002
     8  H   -0.002022  -0.000016  -0.055213   0.000042   0.432404  -0.000002
     9  H   -0.002022  -0.000016  -0.055213   0.000042   0.432404  -0.000002
    10  H   -0.000016  -0.002022   0.000042  -0.055213  -0.000002   0.432404
    11  H   -0.000016  -0.002022   0.000042  -0.055213  -0.000002   0.432404
    12  H   -0.000016  -0.002022   0.000042  -0.055213  -0.000002   0.432404
               7          8          9         10         11         12
     1  C   -0.002022  -0.002022  -0.002022  -0.000016  -0.000016  -0.000016
     2  C   -0.000016  -0.000016  -0.000016  -0.002022  -0.002022  -0.002022
     3  C   -0.055213  -0.055213  -0.055213   0.000042   0.000042   0.000042
     4  C    0.000042   0.000042   0.000042  -0.055213  -0.055213  -0.055213
     5  C    0.432404   0.432404   0.432404  -0.000002  -0.000002  -0.000002
     6  C   -0.000002  -0.000002  -0.000002   0.432404   0.432404   0.432404
     7  H    0.627795  -0.028546  -0.028546  -0.000003   0.000001   0.000001
     8  H   -0.028546   0.627795  -0.028546   0.000001   0.000001  -0.000003
     9  H   -0.028546  -0.028546   0.627795   0.000001  -0.000003   0.000001
    10  H   -0.000003   0.000001   0.000001   0.627795  -0.028546  -0.028546
    11  H    0.000001   0.000001  -0.000003  -0.028546   0.627795  -0.028546
    12  H    0.000001  -0.000003   0.000001  -0.028546  -0.028546   0.627795
 Mulliken charges:
               1
     1  C   -0.093611
     2  C   -0.093611
     3  C    0.030224
     4  C    0.030224
     5  C   -0.098927
     6  C   -0.098927
     7  H    0.054105
     8  H    0.054105
     9  H    0.054105
    10  H    0.054105
    11  H    0.054105
    12  H    0.054105
 Sum of Mulliken charges =  -0.00000
 Mulliken charges with hydrogens summed into heavy atoms:
               1
     1  C   -0.093611
     2  C   -0.093611
     3  C    0.030224
     4  C    0.030224
     5  C    0.063386
     6  C    0.063386
 Electronic spatial extent (au):  <R**2>=           1041.7961
 Charge=             -0.0000 electrons
 Dipole moment (field-independent basis, Debye):
    X=             -0.0000    Y=             -0.0000    Z=              0.0000  Tot=              0.0000
 Quadrupole moment (field-independent basis, Debye-Ang):
   XX=            -36.9028   YY=            -36.9028   ZZ=            -20.1504
   XY=              0.0000   XZ=              0.0000   YZ=             -0.0000
 Traceless Quadrupole moment (field-independent basis, Debye-Ang):
   XX=             -5.5841   YY=             -5.5841   ZZ=             11.1683
   XY=              0.0000   XZ=              0.0000   YZ=             -0.0000
 Octapole moment (field-independent basis, Debye-Ang**2):
  XXX=             -0.0000  YYY=              1.4078  ZZZ=             -0.0000  XYY=             -0.0000
  XXY=             -1.4078  XXZ=              0.0000  XZZ=             -0.0000  YZZ=             -0.0000
  YYZ=             -0.0000  XYZ=             -0.0000
 Hexadecapole moment (field-independent basis, Debye-Ang**3):
 XXXX=            -56.0668 YYYY=            -56.0668 ZZZZ=          -1155.7342 XXXY=              0.0000
 XXXZ=              0.0000 YYYX=              0.0000 YYYZ=              0.0000 ZZZX=              0.0000
 ZZZY=             -0.0000 XXYY=            -18.6889 XXZZ=           -225.2272 YYZZ=           -225.2272
 XXYZ=             -0.0000 YYXZ=              0.0000 ZZXY=              0.0000
 N-N= 1.706235136307D+02 E-N=-8.796232198057D+02  KE= 2.312714615418D+02
 Symmetry A1   KE= 1.128881761637D+02
 Symmetry A2   KE= 4.467129701575D+00
 Symmetry B1   KE= 4.184009274427D+00
 Symmetry B2   KE= 1.097321464021D+02
 Calling FoFJK, ICntrl=      2127 FMM=F ISym2X=1 I1Cent= 0 IOpClX= 0 NMat=1 NMatS=1 NMatT=0.
 ***** Axes restored to original set *****
 -------------------------------------------------------------------
 Center     Atomic                   Forces (Hartrees/Bohr)
 Number     Number              X              Y              Z
 -------------------------------------------------------------------
      1        6           0.000000000   -0.000000000    0.000151412
      2        6           0.000000000   -0.000000000   -0.000151412
      3        6          -0.000000000   -0.000000000   -0.000160066
      4        6          -0.000000000   -0.000000000    0.000160066
      5        6          -0.000000000   -0.000000000    0.000229628
      6        6          -0.000000000   -0.000000000   -0.000229628
      7        1           0.000000000   -0.000003354   -0.000031977
      8        1           0.000002905    0.000001677   -0.000031977
      9        1          -0.000002905    0.000001677   -0.000031977
     10        1           0.000000000   -0.000003354    0.000031977
     11        1          -0.000002905    0.000001677    0.000031977
     12        1           0.000002905    0.000001677    0.000031977
 -------------------------------------------------------------------
 Cartesian Forces:  Max     0.000229628 RMS     0.000076149

 GradGradGradGradGradGradGradGradGradGradGradGradGradGradGradGradGradGrad
 Berny optimization.
 Search for a local minimum.
 Step number   1 out of a maximum of   46
 All quantities printed in internal units (Hartrees-Bohrs-Radians)
 Second derivative matrix not updated -- first step.
 ITU=  0
     Eigenvalues ---   -0.00000   0.00399   0.00399   0.02489   0.02489
     Eigenvalues ---    0.03485   0.06193   0.06193   0.09670   0.10876
     Eigenvalues ---    0.10876   0.12207   0.12207   0.13941   0.13941
     Eigenvalues ---    0.22391   0.29296   0.32442   0.32442   0.49260
     Eigenvalues ---    0.54799   0.54799   0.84364   0.86394   0.86394
     Eigenvalues ---    0.89647   0.89647   1.03565   2.28784   2.81288
 RFO step:  Lambda=-1.90734864D-07 EMin=-4.44089210D-16
 ClnCor:  largest displacement from symmetrization is 2.92D-09 for atom     9.
 Linear search not attempted -- first point.
 ClnCor:  largest displacement from symmetrization is 8.88D-16 for atom     5.
 B after Tr=     0.000000    0.000000   -0.000000
         Rot=    1.000000   -0.000000    0.000000    0.000000 Ang=   0.00 deg.
 Variable       Old X    -DE/DX   Delta X   Delta X   Delta X     New X
                                 (Linear)    (Quad)   (Total)
    X1       -0.00000   0.00000   0.00000   0.00000  -0.00000  -0.00000
    Y1       -0.00000  -0.00000   0.00000  -0.00000  -0.00000  -0.00000
    Z1        1.28847   0.00015   0.00000   0.00012   0.00012   1.28859
    X2        0.00000   0.00000   0.00000   0.00000   0.00000   0.00000
    Y2       -0.00000  -0.00000   0.00000  -0.00000   0.00000  -0.00000
    Z2       -1.28847  -0.00015   0.00000  -0.00012  -0.00012  -1.28859
    X3       -0.00000  -0.00000   0.00000   0.00000  -0.00000  -0.00000
    Y3       -0.00000  -0.00000   0.00000  -0.00000  -0.00000  -0.00000
    Z3        3.57040  -0.00016   0.00000   0.00009   0.00009   3.57050
    X4        0.00000  -0.00000   0.00000   0.00000   0.00000   0.00000
    Y4       -0.00000  -0.00000   0.00000  -0.00000   0.00000  -0.00000
    Z4       -3.57040   0.00016   0.00000  -0.00009  -0.00009  -3.57050
    X5       -0.00000  -0.00000   0.00000  -0.00000  -0.00000  -0.00000
    Y5       -0.00000  -0.00000   0.00000  -0.00000  -0.00000  -0.00000
    Z5        6.31243   0.00023   0.00000   0.00044   0.00044   6.31287
    X6        0.00000  -0.00000   0.00000   0.00000   0.00000   0.00000
    Y6       -0.00000  -0.00000   0.00000  -0.00000   0.00000  -0.00000
    Z6       -6.31243  -0.00023   0.00000  -0.00044  -0.00044  -6.31287
    X7        0.00000   0.00000   0.00000   0.00000  -0.00000  -0.00000
    Y7        1.92484  -0.00000   0.00000   0.00009   0.00009   1.92493
    Z7        7.05521  -0.00003   0.00000   0.00010   0.00010   7.05530
    X8       -1.66696   0.00000   0.00000  -0.00008  -0.00008  -1.66704
    Y8       -0.96242   0.00000   0.00000  -0.00004  -0.00004  -0.96246
    Z8        7.05521  -0.00003   0.00000   0.00010   0.00010   7.05530
    X9        1.66696  -0.00000   0.00000   0.00008   0.00008   1.66704
    Y9       -0.96242   0.00000   0.00000  -0.00004  -0.00004  -0.96246
    Z9        7.05521  -0.00003   0.00000   0.00010   0.00010   7.05530
   X10        0.00000   0.00000   0.00000   0.00000   0.00000   0.00000
   Y10        1.92484  -0.00000   0.00000   0.00009   0.00009   1.92493
   Z10       -7.05521   0.00003   0.00000  -0.00010  -0.00010  -7.05530
   X11        1.66696  -0.00000   0.00000   0.00008   0.00008   1.66704
   Y11       -0.96242   0.00000   0.00000  -0.00004  -0.00004  -0.96246
   Z11       -7.05521   0.00003   0.00000  -0.00010  -0.00010  -7.05530
   X12       -1.66696   0.00000   0.00000  -0.00008  -0.00008  -1.66704
   Y12       -0.96242   0.00000   0.00000  -0.00004  -0.00004  -0.96246
   Z12       -7.05521   0.00003   0.00000  -0.00010  -0.00010  -7.05530
         Item               Value     Threshold  Converged?
 Maximum Force            0.000230     0.000450     YES
 RMS     Force            0.000076     0.000300     YES
 Maximum Displacement     0.000444     0.001800     YES
 RMS     Displacement     0.000123     0.001200     YES
 Predicted change in Energy=-9.499796D-08
 Optimization completed.
    -- Stationary point found.
 GradGradGradGradGradGradGradGradGradGradGradGradGradGradGradGradGradGrad

                          Input orientation:                          
 ---------------------------------------------------------------------
 Center     Atomic      Atomic             Coordinates (Angstroms)
 Number     Number       Type             X           Y           Z
 ---------------------------------------------------------------------
      1          6           0       -0.000000   -0.000000    0.681831
      2          6           0        0.000000   -0.000000   -0.681831
      3          6           0       -0.000000   -0.000000    1.889376
      4          6           0        0.000000   -0.000000   -1.889376
      5          6           0       -0.000000   -0.000000    3.340393
      6          6           0        0.000000   -0.000000   -3.340393
      7          1           0        0.000000    1.018581    3.733455
      8          1           0       -0.882117   -0.509291    3.733455
      9          1           0        0.882117   -0.509291    3.733455
     10          1           0        0.000000    1.018581   -3.733455
     11          1           0        0.882117   -0.509291   -3.733455
     12          1           0       -0.882117   -0.509291   -3.733455
 ---------------------------------------------------------------------
                    Distance matrix (angstroms):
                    1          2          3          4          5
     1  C    0.000000
     2  C    1.363662   0.000000
     3  C    1.207545   2.571207   0.000000
     4  C    2.571207   1.207545   3.778752   0.000000
     5  C    2.658562   4.022224   1.451017   5.229769   0.000000
     6  C    4.022224   2.658562   5.229769   1.451017   6.680786
     7  H    3.217129   4.531253   2.106688   5.714345   1.091790
     8  H    3.217129   4.531253   2.106688   5.714345   1.091790
     9  H    3.217129   4.531253   2.106688   5.714345   1.091790
    10  H    4.531253   3.217129   5.714345   2.106688   7.146806
    11  H    4.531253   3.217129   5.714345   2.106688   7.146806
    12  H    4.531253   3.217129   5.714345   2.106688   7.146806
                    6          7          8          9         10
     6  C    0.000000
     7  H    7.146806   0.000000
     8  H    7.146806   1.764234   0.000000
     9  H    7.146806   1.764234   1.764234   0.000000
    10  H    1.091790   7.466910   7.672501   7.672501   0.000000
    11  H    1.091790   7.672501   7.672501   7.466910   1.764234
    12  H    1.091790   7.672501   7.466910   7.672501   1.764234
                   11         12
    11  H    0.000000
    12  H    1.764234   0.000000
 Stoichiometry    C6H6
 Framework group  D3H[C3(CCC.CCC),3SGV(H2)]
 Deg. of freedom     5
 Full point group                 D3H     NOp  12
 Largest Abelian subgroup         C2V     NOp   4
 Largest concise Abelian subgroup C2V     NOp   4
                         Standard orientation:                         
 ---------------------------------------------------------------------
 Center     Atomic      Atomic             Coordinates (Angstroms)
 Number     Number       Type             X           Y           Z
 ---------------------------------------------------------------------
      1          6           0        0.000000    0.000000    0.681831
      2          6           0        0.000000    0.000000   -0.681831
      3          6           0        0.000000    0.000000    1.889376
      4          6           0        0.000000    0.000000   -1.889376
      5          6           0        0.000000    0.000000    3.340393
      6          6           0        0.000000    0.000000   -3.340393
      7          1           0        0.000000    1.018581    3.733455
      8          1           0       -0.882117   -0.509291    3.733455
      9          1           0        0.882117   -0.509291    3.733455
     10          1           0        0.000000    1.018581   -3.733455
     11          1           0        0.882117   -0.509291   -3.733455
     12          1           0       -0.882117   -0.509291   -3.733455
 ---------------------------------------------------------------------
 Rotational constants (GHZ):          80.5544661           1.1179664           1.1179664
 1\1\GINC-GAMBA\FOpt\RB3LYP\Gen\C6H6\IRIKURA\03-Oct-2023\0\\# b3lyp/gen
  opt=cart freq CPHF(Grid=OneStep)\\2,4-hexadiyne, B3LYP/pcseg-2\\0,1\C
 ,0.,-0.0000000476,0.681831\C,0.,-0.0000000476,-0.681831\C,0.,-0.000000
 0476,1.889376\C,0.,-0.0000000476,-1.889376\C,0.,-0.0000000476,3.340393
 \C,0.,-0.0000000476,-3.340393\H,0.,1.018581,3.733455\H,-0.8821170631,-
 0.5092905714,3.733455\H,0.8821170631,-0.5092905714,3.733455\H,0.,1.018
 581,-3.733455\H,0.8821170631,-0.5092905714,-3.733455\H,-0.8821170631,-
 0.5092905714,-3.733455\\Version=ES64L-G16RevB.01\State=1-A1'\HF=-232.2
 334048\RMSD=2.097e-09\RMSF=7.615e-05\Dipole=0.,0.,0.\Quadrupole=-4.151
 6602,-4.1516602,8.3033204,0.,0.,0.\PG=D03H [C3(C1C1C1.C1C1C1),3SGV(H2)
 ]\\@


 IN NATURE THERE ARE NEITHER REWARDS OR
 PUNISHMENTS -- THERE ARE CONSEQUENCES.

                            -- ROBERT GREEN INGERSOLL
 Job cpu time:       0 days  0 hours  1 minutes 36.8 seconds.
 Elapsed time:       0 days  0 hours  0 minutes 24.3 seconds.
 File lengths (MBytes):  RWF=     44 Int=      0 D2E=      0 Chk=      6 Scr=      1
 Normal termination of Gaussian 16 at Tue Oct  3 14:30:26 2023.
 Link1:  Proceeding to internal job step number  2.
 ------------------------------------------------------------------
 #N Geom=AllCheck Guess=TCheck SCRF=Check GenChk RB3LYP/ChkBas Freq
 ------------------------------------------------------------------
 1/10=4,29=7,30=1,38=1,40=1/1,3;
 2/12=2,40=1/2;
 3/5=7,6=2,11=2,14=-4,25=1,30=1,67=1,70=2,71=2,74=-5,82=7,116=1,140=1/1,2,3;
 4/5=101/1;
 5/5=2,38=6,98=1/2;
 8/6=4,10=90,11=11/1;
 11/6=1,8=1,9=11,15=111,16=1/1,2,10;
 10/6=1,60=-420/2;
 6/7=2,8=2,9=2,10=2,28=1/1;
 7/8=1,10=1,25=1/1,2,3,16;
 1/10=4,30=1/3;
 99//99;
 Structure from the checkpoint file:  "mec4me.chk"
 ----------------------------
 2,4-hexadiyne, B3LYP/pcseg-2
 ----------------------------
 Charge =  0 Multiplicity = 1
 No Z-Matrix found in chk file; cartesian coordinates used.
  C                                                 0.000000000000     -0.000000047619      0.681831000000
  C                                                 0.000000000000     -0.000000047619     -0.681831000000
  C                                                 0.000000000000     -0.000000047619      1.889376000000
  C                                                 0.000000000000     -0.000000047619     -1.889376000000
  C                                                 0.000000000000     -0.000000047619      3.340393000000
  C                                                 0.000000000000     -0.000000047619     -3.340393000000
  H                                                 0.000000000000      1.018581000000      3.733455000000
  H                                                -0.882117063051     -0.509290571429      3.733455000000
  H                                                 0.882117063051     -0.509290571429      3.733455000000
  H                                                 0.000000000000      1.018581000000     -3.733455000000
  H                                                 0.882117063051     -0.509290571429     -3.733455000000
  H                                                -0.882117063051     -0.509290571429     -3.733455000000
 Recover connectivity data from disk.

 GradGradGradGradGradGradGradGradGradGradGradGradGradGradGradGradGradGrad
 Berny optimization.
 Initialization pass.
 Trust Radius=3.00D-01 FncErr=1.00D-07 GrdErr=1.00D-07 EigMax=2.50D+02 EigMin=1.00D-04
 Number of steps in this run=      2 maximum allowed number of steps=      2.
 GradGradGradGradGradGradGradGradGradGradGradGradGradGradGradGradGradGrad

                          Input orientation:                          
 ---------------------------------------------------------------------
 Center     Atomic      Atomic             Coordinates (Angstroms)
 Number     Number       Type             X           Y           Z
 ---------------------------------------------------------------------
      1          6           0        0.000000   -0.000000    0.681831
      2          6           0        0.000000   -0.000000   -0.681831
      3          6           0        0.000000   -0.000000    1.889376
      4          6           0        0.000000   -0.000000   -1.889376
      5          6           0        0.000000   -0.000000    3.340393
      6          6           0        0.000000   -0.000000   -3.340393
      7          1           0        0.000000    1.018581    3.733455
      8          1           0       -0.882117   -0.509291    3.733455
      9          1           0        0.882117   -0.509291    3.733455
     10          1           0        0.000000    1.018581   -3.733455
     11          1           0        0.882117   -0.509291   -3.733455
     12          1           0       -0.882117   -0.509291   -3.733455
 ---------------------------------------------------------------------
                    Distance matrix (angstroms):
                    1          2          3          4          5
     1  C    0.000000
     2  C    1.363662   0.000000
     3  C    1.207545   2.571207   0.000000
     4  C    2.571207   1.207545   3.778752   0.000000
     5  C    2.658562   4.022224   1.451017   5.229769   0.000000
     6  C    4.022224   2.658562   5.229769   1.451017   6.680786
     7  H    3.217129   4.531253   2.106688   5.714345   1.091790
     8  H    3.217129   4.531253   2.106688   5.714345   1.091790
     9  H    3.217129   4.531253   2.106688   5.714345   1.091790
    10  H    4.531253   3.217129   5.714345   2.106688   7.146806
    11  H    4.531253   3.217129   5.714345   2.106688   7.146806
    12  H    4.531253   3.217129   5.714345   2.106688   7.146806
                    6          7          8          9         10
     6  C    0.000000
     7  H    7.146806   0.000000
     8  H    7.146806   1.764234   0.000000
     9  H    7.146806   1.764234   1.764234   0.000000
    10  H    1.091790   7.466910   7.672501   7.672501   0.000000
    11  H    1.091790   7.672501   7.672501   7.466910   1.764234
    12  H    1.091790   7.672501   7.466910   7.672501   1.764234
                   11         12
    11  H    0.000000
    12  H    1.764234   0.000000
 Stoichiometry    C6H6
 Framework group  D3H[C3(CCC.CCC),3SGV(H2)]
 Deg. of freedom     5
 Full point group                 D3H     NOp  12
 Largest Abelian subgroup         C2V     NOp   4
 Largest concise Abelian subgroup C2V     NOp   4
                         Standard orientation:                         
 ---------------------------------------------------------------------
 Center     Atomic      Atomic             Coordinates (Angstroms)
 Number     Number       Type             X           Y           Z
 ---------------------------------------------------------------------
      1          6           0        0.000000    0.000000    0.681831
      2          6           0        0.000000    0.000000   -0.681831
      3          6           0        0.000000    0.000000    1.889376
      4          6           0        0.000000    0.000000   -1.889376
      5          6           0        0.000000    0.000000    3.340393
      6          6           0        0.000000    0.000000   -3.340393
      7          1           0        0.000000    1.018581    3.733455
      8          1           0       -0.882117   -0.509291    3.733455
      9          1           0        0.882117   -0.509291    3.733455
     10          1           0        0.000000    1.018581   -3.733455
     11          1           0        0.882117   -0.509291   -3.733455
     12          1           0       -0.882117   -0.509291   -3.733455
 ---------------------------------------------------------------------
 Rotational constants (GHZ):          80.5544661           1.1179664           1.1179664
 Basis read from chk: "mec4me.chk" (5D, 7F)
 There are    98 symmetry adapted cartesian basis functions of A1  symmetry.
 There are    52 symmetry adapted cartesian basis functions of A2  symmetry.
 There are    52 symmetry adapted cartesian basis functions of B1  symmetry.
 There are    98 symmetry adapted cartesian basis functions of B2  symmetry.
 There are    84 symmetry adapted basis functions of A1  symmetry.
 There are    48 symmetry adapted basis functions of A2  symmetry.
 There are    48 symmetry adapted basis functions of B1  symmetry.
 There are    84 symmetry adapted basis functions of B2  symmetry.
   264 basis functions,   414 primitive gaussians,   300 cartesian basis functions
    21 alpha electrons       21 beta electrons
       nuclear repulsion energy       170.6235136307 Hartrees.
 NAtoms=   12 NActive=   12 NUniq=    4 SFac= 4.00D+00 NAtFMM=   60 NAOKFM=F Big=F
 Integral buffers will be    131072 words long.
 Raffenetti 2 integral format.
 Two-electron integral symmetry is turned on.
 One-electron integrals computed using PRISM.
 NBasis=   264 RedAO= T EigKep=  1.23D-05  NBF=    84    48    48    84
 NBsUse=   264 1.00D-06 EigRej= -1.00D+00 NBFU=    84    48    48    84
 Initial guess from the checkpoint file:  "mec4me.chk"
 B after Tr=     0.000000    0.000000    0.000000
         Rot=    1.000000    0.000000   -0.000000    0.000000 Ang=   0.00 deg.
 Initial guess orbital symmetries:
       Occupied  (A2") (A1') (A1') (A2") (A1') (A2") (A1') (A2")
                 (A1') (A2") (A1') (A2") (A1') (E') (E') (E") (E")
                 (E') (E') (E") (E")
       Virtual   (E') (E') (A1') (A2") (E") (E") (E') (E') (A1')
                 (A2") (A1') (E") (E") (E') (E') (A2") (E") (E")
                 (E') (E') (A2") (A1') (E") (E") (A2") (A1') (E')
                 (E') (E") (E") (A2") (E') (E') (A1') (A2") (E")
                 (E") (A1') (A2") (A1') (A2") (A1') (E') (E') (E')
                 (E') (E") (E") (A2") (E") (E") (A1') (E') (E')
                 (E") (E") (A1") (A2') (E') (E') (A2") (E') (E')
                 (E") (E") (E') (E') (A1') (A2") (E") (E") (A1')
                 (E') (E') (A2") (E") (E") (E") (E") (E') (E')
                 (A1') (A2") (E') (E') (A1') (E") (E") (E") (E")
                 (E') (E') (A2") (A1') (E") (E") (E') (E') (A2")
                 (A1') (A2") (A1') (E") (E") (E') (E') (A2") (A1')
                 (A2") (E") (E") (E') (E') (A1') (E") (E") (A2")
                 (A1') (E') (E') (A2") (A2') (A1') (A1") (A2")
                 (E") (E") (A2') (A1") (A1') (E') (E') (E') (E')
                 (E") (E") (A1') (A2') (A2") (A1') (E") (E") (A1")
                 (A2") (E') (E') (E") (E") (A1') (A2") (A2') (A1")
                 (E') (E') (E') (E') (E') (E') (E") (E") (E') (E')
                 (E") (E") (E') (E') (A2") (E") (E") (E') (E')
                 (E") (E") (E") (E") (A2") (A1') (E') (E') (E')
                 (E') (E") (E") (A1') (A2") (E") (E") (A2') (A1")
                 (E') (E') (E") (E") (A1') (A2") (E') (E') (A1')
                 (E") (E") (E') (E') (E") (E") (A2") (A1') (A1')
                 (A2") (E") (E") (E') (E') (E") (E") (A2") (A1')
                 (A2") (A2') (A1") (E') (E') (E") (E") (A1') (E')
                 (E') (A2") (E") (E") (E') (E') (A1') (A2") (E")
                 (E") (E') (E') (E") (E") (A2") (A1') (A1') (A2")
 Requested convergence on RMS density matrix=1.00D-08 within 128 cycles.
 Requested convergence on MAX density matrix=1.00D-06.
 Requested convergence on             energy=1.00D-06.
 No special actions if energy rises.
 SCF Done:  E(RB3LYP) =  -232.233404834     A.U. after    1 cycles
            NFock=  1  Conv=0.57D-09     -V/T= 2.0042
 DoSCS=F DFT=T ScalE2(SS,OS)=  1.000000  1.000000
 Range of M.O.s used for correlation:     1   264
 NBasis=   264 NAE=    21 NBE=    21 NFC=     0 NFV=     0
 NROrb=    264 NOA=    21 NOB=    21 NVA=   243 NVB=   243

 **** Warning!!: The largest alpha MO coefficient is  0.81549148D+02

 Symmetrizing basis deriv contribution to polar:
 IMax=3 JMax=2 DiffMx= 0.00D+00
 G2DrvN: will do    13 centers at a time, making    1 passes.
 Calling FoFCou, ICntrl=  3107 FMM=F I1Cent=   0 AccDes= 0.00D+00.
 End of G2Drv F.D. properties file   721 does not exist.
 End of G2Drv F.D. properties file   722 does not exist.
 End of G2Drv F.D. properties file   788 does not exist.
          IDoAtm=111111111111
          Differentiating once with respect to electric field.
                with respect to dipole field.
          Differentiating once with respect to nuclear coordinates.
 CalDSu exits because no D1Ps are significant.
          There are    15 degrees of freedom in the 1st order CPHF.  IDoFFX=4 NUNeed=    15.
     15 vectors produced by pass  0 Test12= 3.40D-14 6.67D-09 XBig12= 2.37D+02 1.05D+01.
 AX will form    15 AO Fock derivatives at one time.
     15 vectors produced by pass  1 Test12= 3.40D-14 6.67D-09 XBig12= 1.34D+02 3.39D+00.
     15 vectors produced by pass  2 Test12= 3.40D-14 6.67D-09 XBig12= 6.53D+00 4.84D-01.
     15 vectors produced by pass  3 Test12= 3.40D-14 6.67D-09 XBig12= 1.12D-01 6.65D-02.
     15 vectors produced by pass  4 Test12= 3.40D-14 6.67D-09 XBig12= 2.46D-03 7.11D-03.
     15 vectors produced by pass  5 Test12= 3.40D-14 6.67D-09 XBig12= 1.55D-05 6.71D-04.
     13 vectors produced by pass  6 Test12= 3.40D-14 6.67D-09 XBig12= 9.72D-08 5.01D-05.
      5 vectors produced by pass  7 Test12= 3.40D-14 6.67D-09 XBig12= 1.83D-10 2.17D-06.
      2 vectors produced by pass  8 Test12= 3.40D-14 6.67D-09 XBig12= 3.23D-13 9.39D-08.
 InvSVY:  IOpt=1 It=  1 EMax= 3.55D-15
 Solved reduced A of dimension   110 with    15 vectors.
 Isotropic polarizability for W=    0.000000       78.83 Bohr**3.
 End of Minotr F.D. properties file   721 does not exist.
 End of Minotr F.D. properties file   722 does not exist.
 End of Minotr F.D. properties file   788 does not exist.

 **********************************************************************

            Population analysis using the SCF Density.

 **********************************************************************

 Orbital symmetries:
       Occupied  (A2") (A1') (A1') (A2") (A1') (A2") (A1') (A2")
                 (A1') (A2") (A1') (A2") (A1') (E') (E') (E") (E")
                 (E') (E') (E") (E")
       Virtual   (E') (E') (A1') (A2") (E") (E") (E') (E') (A1')
                 (A2") (A1') (E") (E") (E') (E') (A2") (E") (E")
                 (E') (E') (A2") (A1') (E") (E") (A2") (A1') (E')
                 (E') (E") (E") (A2") (E') (E') (A1') (A2") (E")
                 (E") (A1') (A2") (A1') (A2") (A1') (E') (E') (E')
                 (E') (E") (E") (A2") (E") (E") (A1') (E') (E')
                 (E") (E") (A1") (A2') (E') (E') (A2") (E') (E')
                 (E") (E") (E') (E') (A1') (A2") (E") (E") (A1')
                 (E') (E') (A2") (E") (E") (E") (E") (E') (E')
                 (A1') (A2") (E') (E') (A1') (E") (E") (E") (E")
                 (E') (E') (A2") (A1') (E") (E") (E') (E') (A2")
                 (A1') (A2") (A1') (E") (E") (E') (E') (A2") (A1')
                 (A2") (E") (E") (E') (E') (A1') (E") (E") (A2")
                 (A1') (E') (E') (A2") (A2') (A1') (A1") (A2")
                 (E") (E") (A2') (A1") (A1') (E') (E') (E') (E')
                 (E") (E") (A1') (A2') (A2") (A1') (E") (E") (A1")
                 (A2") (E') (E') (E") (E") (A1') (A2") (A2') (A1")
                 (E') (E') (E') (E') (E') (E') (E") (E") (E') (E')
                 (E") (E") (E') (E') (A2") (E") (E") (E') (E')
                 (E") (E") (E") (E") (A2") (A1') (E') (E') (E')
                 (E') (E") (E") (A1') (A2") (E") (E") (A2') (A1")
                 (E') (E') (E") (E") (A1') (A2") (E') (E') (A1')
                 (E") (E") (E') (E') (E") (E") (A2") (A1') (A1')
                 (A2") (E") (E") (E') (E') (E") (E") (A2") (A1')
                 (A2") (A2') (A1") (E') (E') (E") (E") (A1') (E')
                 (E') (A2") (E") (E") (E') (E') (A1') (A2") (E")
                 (E") (E') (E') (E") (E") (A2") (A1') (A1') (A2")
 The electronic state is 1-A1'.
 Alpha  occ. eigenvalues --  -10.19711 -10.19711 -10.18089 -10.18083 -10.17699
 Alpha  occ. eigenvalues --  -10.17636  -0.80384  -0.78360  -0.74062  -0.69316
 Alpha  occ. eigenvalues --   -0.59027  -0.47479  -0.46481  -0.44074  -0.44074
 Alpha  occ. eigenvalues --   -0.43825  -0.43825  -0.33348  -0.33348  -0.23941
 Alpha  occ. eigenvalues --   -0.23941
 Alpha virt. eigenvalues --   -0.01045  -0.01045   0.01290   0.01754   0.07142
 Alpha virt. eigenvalues --    0.07142   0.07960   0.07960   0.08204   0.10240
 Alpha virt. eigenvalues --    0.14229   0.15583   0.15583   0.17303   0.17303
 Alpha virt. eigenvalues --    0.17536   0.18941   0.18941   0.20302   0.20302
 Alpha virt. eigenvalues --    0.23861   0.24584   0.26393   0.26393   0.30494
 Alpha virt. eigenvalues --    0.33103   0.33785   0.33785   0.35261   0.35261
 Alpha virt. eigenvalues --    0.37294   0.37302   0.37302   0.39979   0.45785
 Alpha virt. eigenvalues --    0.47169   0.47169   0.48130   0.49534   0.50533
 Alpha virt. eigenvalues --    0.59148   0.65002   0.70885   0.70885   0.77548
 Alpha virt. eigenvalues --    0.77548   0.79361   0.79361   0.80781   0.88015
 Alpha virt. eigenvalues --    0.88015   0.91028   0.91850   0.91850   0.93884
 Alpha virt. eigenvalues --    0.93884   0.96495   0.96495   1.00567   1.00567
 Alpha virt. eigenvalues --    1.03663   1.05357   1.05357   1.06899   1.06899
 Alpha virt. eigenvalues --    1.11587   1.11587   1.11999   1.16416   1.17678
 Alpha virt. eigenvalues --    1.17678   1.21550   1.25421   1.25421   1.25872
 Alpha virt. eigenvalues --    1.30440   1.30440   1.33266   1.33266   1.33470
 Alpha virt. eigenvalues --    1.33470   1.33629   1.42562   1.48500   1.48500
 Alpha virt. eigenvalues --    1.52781   1.58769   1.58769   1.62338   1.62338
 Alpha virt. eigenvalues --    1.62585   1.62585   1.62882   1.65168   1.69342
 Alpha virt. eigenvalues --    1.69342   1.71080   1.71080   1.71389   1.73601
 Alpha virt. eigenvalues --    1.83412   1.85548   1.85681   1.85681   2.13221
 Alpha virt. eigenvalues --    2.13221   2.27645   2.28162   2.48359   2.49795
 Alpha virt. eigenvalues --    2.49795   2.50063   2.50063   2.51447   2.60855
 Alpha virt. eigenvalues --    2.60855   2.71665   2.82035   2.96236   2.96236
 Alpha virt. eigenvalues --    3.08357   3.12213   3.13408   3.20658   3.24250
 Alpha virt. eigenvalues --    3.24343   3.24343   3.26447   3.28582   3.29282
 Alpha virt. eigenvalues --    3.32298   3.32298   3.37888   3.37888   3.46432
 Alpha virt. eigenvalues --    3.46432   3.47025   3.50882   3.51522   3.52461
 Alpha virt. eigenvalues --    3.58515   3.58515   3.64857   3.65491   3.72685
 Alpha virt. eigenvalues --    3.72685   3.76654   3.76654   3.78174   3.78873
 Alpha virt. eigenvalues --    3.83392   3.83423   3.83614   3.83614   3.89238
 Alpha virt. eigenvalues --    3.89238   3.90268   3.90268   3.96488   3.96488
 Alpha virt. eigenvalues --    3.98025   3.98025   3.99552   3.99552   4.04543
 Alpha virt. eigenvalues --    4.04543   4.04667   4.06800   4.06800   4.13324
 Alpha virt. eigenvalues --    4.13324   4.20003   4.20003   4.22300   4.22300
 Alpha virt. eigenvalues --    4.28045   4.31645   4.34195   4.34195   4.38774
 Alpha virt. eigenvalues --    4.38774   4.39991   4.39991   4.44383   4.48791
 Alpha virt. eigenvalues --    4.58739   4.58739   4.61003   4.61006   4.63355
 Alpha virt. eigenvalues --    4.63355   4.66594   4.66594   4.66896   4.70252
 Alpha virt. eigenvalues --    4.72132   4.72132   4.75621   4.78127   4.78127
 Alpha virt. eigenvalues --    4.85395   4.85395   4.88221   4.88221   4.88667
 Alpha virt. eigenvalues --    4.90677   5.01545   5.06851   5.12314   5.12314
 Alpha virt. eigenvalues --    5.20504   5.20504   5.45529   5.45529   5.47726
 Alpha virt. eigenvalues --    5.47959   5.65310   5.75679   5.75684   5.76561
 Alpha virt. eigenvalues --    5.76561   5.80877   5.80877   5.81759   5.82288
 Alpha virt. eigenvalues --    5.82288   5.83129   5.86432   5.86432   5.87120
 Alpha virt. eigenvalues --    5.87120   5.99221   6.01781   6.07796   6.07796
 Alpha virt. eigenvalues --    6.12991   6.12991   6.14281   6.14281   6.48310
 Alpha virt. eigenvalues --    7.04522   8.33169  10.69739
          Condensed to atoms (all electrons):
               1          2          3          4          5          6
     1  C    4.896230   0.437554   0.946240  -0.140670  -0.040154   0.000525
     2  C    0.437554   4.896230  -0.140670   0.946240   0.000525  -0.040154
     3  C    0.946240  -0.140670   5.089704  -0.033023   0.272883   0.000157
     4  C   -0.140670   0.946240  -0.033023   5.089704   0.000157   0.272883
     5  C   -0.040154   0.000525   0.272883   0.000157   4.568249   0.000060
     6  C    0.000525  -0.040154   0.000157   0.272883   0.000060   4.568249
     7  H   -0.002022  -0.000016  -0.055213   0.000042   0.432404  -0.000002
     8  H   -0.002022  -0.000016  -0.055213   0.000042   0.432404  -0.000002
     9  H   -0.002022  -0.000016  -0.055213   0.000042   0.432404  -0.000002
    10  H   -0.000016  -0.002022   0.000042  -0.055213  -0.000002   0.432404
    11  H   -0.000016  -0.002022   0.000042  -0.055213  -0.000002   0.432404
    12  H   -0.000016  -0.002022   0.000042  -0.055213  -0.000002   0.432404
               7          8          9         10         11         12
     1  C   -0.002022  -0.002022  -0.002022  -0.000016  -0.000016  -0.000016
     2  C   -0.000016  -0.000016  -0.000016  -0.002022  -0.002022  -0.002022
     3  C   -0.055213  -0.055213  -0.055213   0.000042   0.000042   0.000042
     4  C    0.000042   0.000042   0.000042  -0.055213  -0.055213  -0.055213
     5  C    0.432404   0.432404   0.432404  -0.000002  -0.000002  -0.000002
     6  C   -0.000002  -0.000002  -0.000002   0.432404   0.432404   0.432404
     7  H    0.627795  -0.028545  -0.028545  -0.000003   0.000001   0.000001
     8  H   -0.028545   0.627795  -0.028545   0.000001   0.000001  -0.000003
     9  H   -0.028545  -0.028545   0.627795   0.000001  -0.000003   0.000001
    10  H   -0.000003   0.000001   0.000001   0.627795  -0.028545  -0.028545
    11  H    0.000001   0.000001  -0.000003  -0.028545   0.627795  -0.028545
    12  H    0.000001  -0.000003   0.000001  -0.028545  -0.028545   0.627795
 Mulliken charges:
               1
     1  C   -0.093611
     2  C   -0.093611
     3  C    0.030224
     4  C    0.030224
     5  C   -0.098927
     6  C   -0.098927
     7  H    0.054105
     8  H    0.054105
     9  H    0.054105
    10  H    0.054105
    11  H    0.054105
    12  H    0.054105
 Sum of Mulliken charges =   0.00000
 Mulliken charges with hydrogens summed into heavy atoms:
               1
     1  C   -0.093611
     2  C   -0.093611
     3  C    0.030224
     4  C    0.030224
     5  C    0.063386
     6  C    0.063386
 APT charges:
               1
     1  C   -0.033430
     2  C   -0.033430
     3  C   -0.052640
     4  C   -0.052640
     5  C    0.129671
     6  C    0.129671
     7  H   -0.014533
     8  H   -0.014534
     9  H   -0.014534
    10  H   -0.014533
    11  H   -0.014534
    12  H   -0.014534
 Sum of APT charges =   0.00000
 APT charges with hydrogens summed into heavy atoms:
               1
     1  C   -0.033430
     2  C   -0.033430
     3  C   -0.052640
     4  C   -0.052640
     5  C    0.086070
     6  C    0.086070
 Electronic spatial extent (au):  <R**2>=           1041.7961
 Charge=              0.0000 electrons
 Dipole moment (field-independent basis, Debye):
    X=             -0.0000    Y=              0.0000    Z=             -0.0000  Tot=              0.0000
 Quadrupole moment (field-independent basis, Debye-Ang):
   XX=            -36.9028   YY=            -36.9028   ZZ=            -20.1504
   XY=              0.0000   XZ=              0.0000   YZ=             -0.0000
 Traceless Quadrupole moment (field-independent basis, Debye-Ang):
   XX=             -5.5841   YY=             -5.5841   ZZ=             11.1683
   XY=              0.0000   XZ=              0.0000   YZ=             -0.0000
 Octapole moment (field-independent basis, Debye-Ang**2):
  XXX=             -0.0000  YYY=              1.4078  ZZZ=              0.0000  XYY=             -0.0000
  XXY=             -1.4078  XXZ=              0.0000  XZZ=             -0.0000  YZZ=              0.0000
  YYZ=              0.0000  XYZ=             -0.0000
 Hexadecapole moment (field-independent basis, Debye-Ang**3):
 XXXX=            -56.0668 YYYY=            -56.0668 ZZZZ=          -1155.7341 XXXY=              0.0000
 XXXZ=              0.0000 YYYX=              0.0000 YYYZ=             -0.0000 ZZZX=              0.0000
 ZZZY=              0.0000 XXYY=            -18.6889 XXZZ=           -225.2271 YYZZ=           -225.2271
 XXYZ=             -0.0000 YYXZ=              0.0000 ZZXY=              0.0000
 N-N= 1.706235136307D+02 E-N=-8.796232218714D+02  KE= 2.312714622734D+02
 Symmetry A1   KE= 1.128881764277D+02
 Symmetry A2   KE= 4.467129810166D+00
 Symmetry B1   KE= 4.184009382704D+00
 Symmetry B2   KE= 1.097321466529D+02
  Exact polarizability:  43.795  -0.000  43.796   0.000  -0.000 148.891
 Approx polarizability:  60.480   0.000  60.480   0.000   0.000 243.335
 Calling FoFJK, ICntrl=    100127 FMM=F ISym2X=1 I1Cent= 0 IOpClX= 0 NMat=1 NMatS=1 NMatT=0.
 Full mass-weighted force constant matrix:
 Low frequencies ---   -3.6904   -3.6813   -0.0051   -0.0009    0.0043    6.2507
 Low frequencies ---    6.8627   99.3627   99.3632
 Diagonal vibrational polarizability:
       22.5473439      22.5471761       0.5217040
 Harmonic frequencies (cm**-1), IR intensities (KM/Mole), Raman scattering
 activities (A**4/AMU), depolarization ratios for plane and unpolarized
 incident light, reduced masses (AMU), force constants (mDyne/A),
 and normal coordinates:
                      1                      2                      3
                     A1"                    E'                     E'
 Frequencies --      6.2507                99.3627                99.3632
 Red. masses --      1.0078                 3.5122                 3.5122
 Frc consts  --      0.0000                 0.0204                 0.0204
 IR Inten    --      0.0000                 7.7810                 7.7811
  Atom  AN      X      Y      Z        X      Y      Z        X      Y      Z
     1   6    -0.00  -0.00  -0.00     0.23   0.00   0.00    -0.00   0.23   0.00
     2   6     0.00  -0.00   0.00     0.23   0.00   0.00    -0.00   0.23  -0.00
     3   6    -0.00  -0.00  -0.00     0.08   0.00   0.00    -0.00   0.08   0.00
     4   6     0.00   0.00   0.00     0.08   0.00   0.00    -0.00   0.08  -0.00
     5   6     0.00   0.00  -0.00    -0.23  -0.00  -0.00     0.00  -0.23   0.00
     6   6    -0.00   0.00   0.00    -0.23  -0.00   0.00     0.00  -0.23  -0.00
     7   1     0.41   0.00  -0.00    -0.32  -0.00   0.00     0.00  -0.32   0.23
     8   1    -0.20   0.35   0.00    -0.32  -0.00  -0.20    -0.00  -0.32  -0.12
     9   1    -0.20  -0.35  -0.00    -0.32   0.00   0.20     0.00  -0.32  -0.12
    10   1    -0.41   0.00   0.00    -0.32  -0.00  -0.00     0.00  -0.32  -0.23
    11   1     0.20   0.35  -0.00    -0.32   0.00  -0.20     0.00  -0.32   0.12
    12   1     0.20  -0.35   0.00    -0.32  -0.00   0.20    -0.00  -0.32   0.12
                      4                      5                      6
                     E"                     E"                     E'
 Frequencies --    245.2714               245.2714               377.8923
 Red. masses --      3.6361                 3.6361                 4.9374
 Frc consts  --      0.1289                 0.1289                 0.4154
 IR Inten    --      0.0000                 0.0000                 5.6102
  Atom  AN      X      Y      Z        X      Y      Z        X      Y      Z
[...]
 Alpha virt. eigenvalues --    0.35270   0.35976   0.35976   0.39334   0.39597
 Alpha virt. eigenvalues --    0.42217   0.42217   0.43534   0.47236   0.47236
 Alpha virt. eigenvalues --    0.48145   0.48449   0.48638   0.48638   0.50618
 Alpha virt. eigenvalues --    0.53012   0.53012   0.54011   0.54011   0.55059
 Alpha virt. eigenvalues --    0.55589   0.58448   0.60559   0.60799   0.60804
 Alpha virt. eigenvalues --    0.60899   0.60899   0.61255   0.61255   0.66626
 Alpha virt. eigenvalues --    0.66626   0.67753   0.68969   0.68969   0.69705
 Alpha virt. eigenvalues --    0.78576   0.78576   0.78841   0.78841   0.79111
 Alpha virt. eigenvalues --    0.80059   0.80059   0.81077   0.83948   0.83948
 Alpha virt. eigenvalues --    0.89198   0.89292   0.89292   0.90284   0.92193
 Alpha virt. eigenvalues --    0.97161   0.97161   1.00148   1.02204   1.02204
 Alpha virt. eigenvalues --    1.03065   1.03065   1.04718   1.05176   1.05967
 Alpha virt. eigenvalues --    1.05967   1.07153   1.07873   1.07873   1.08904
 Alpha virt. eigenvalues --    1.19344   1.20828   1.20828   1.22894   1.22894
 Alpha virt. eigenvalues --    1.25184   1.28004   1.30097   1.30719   1.30719
 Alpha virt. eigenvalues --    1.34207   1.34207   1.34656   1.36937   1.43361
 Alpha virt. eigenvalues --    1.43378   1.43378   1.47978   1.48812   1.48812
 Alpha virt. eigenvalues --    1.49136   1.50733   1.52850   1.52850   1.53559
 Alpha virt. eigenvalues --    1.53610   1.55864   1.59353   1.59576   1.59576
 Alpha virt. eigenvalues --    1.63665   1.65540   1.68033   1.68033   1.69624
 Alpha virt. eigenvalues --    1.69624   1.74238   1.75600   1.76861   1.76861
 Alpha virt. eigenvalues --    1.78136   1.80047   1.80047   1.84236   1.84792
 Alpha virt. eigenvalues --    1.86747   1.86941   1.86941   1.89005   1.89005
 Alpha virt. eigenvalues --    1.90980   1.90980   1.91450   1.91450   1.93947
 Alpha virt. eigenvalues --    2.00274   2.02451   2.02451   2.02481   2.02481
 Alpha virt. eigenvalues --    2.02543   2.03530   2.04985   2.05565   2.05565
 Alpha virt. eigenvalues --    2.09894   2.09894   2.13541   2.13541   2.14023
 Alpha virt. eigenvalues --    2.16166   2.17501   2.19397   2.19397   2.23667
 Alpha virt. eigenvalues --    2.23784   2.23784   2.24669   2.24669   2.30369
 Alpha virt. eigenvalues --    2.30369   2.32950   2.34391   2.34391   2.36074
 Alpha virt. eigenvalues --    2.39601   2.39601   2.39741   2.39741   2.45090
 Alpha virt. eigenvalues --    2.45090   2.51617   2.53016   2.54263   2.54263
 Alpha virt. eigenvalues --    2.54904   2.57214   2.57214   2.61897   2.65358
 Alpha virt. eigenvalues --    2.65974   2.65974   2.68668   2.68668   2.71247
 Alpha virt. eigenvalues --    2.76644   2.78001   2.78001   2.80389   2.80564
 Alpha virt. eigenvalues --    2.81673   2.81673   2.86101   2.86101   2.90445
 Alpha virt. eigenvalues --    2.90445   2.95250   2.95250   2.96585   2.96585
 Alpha virt. eigenvalues --    2.99963   3.06867   3.06867   3.14309   3.14309
 Alpha virt. eigenvalues --    3.14950   3.15810   3.15810   3.22989   3.24000
 Alpha virt. eigenvalues --    3.26512   3.26512   3.30692   3.34753   3.34753
 Alpha virt. eigenvalues --    3.35242   3.35242   3.35991   3.40543   3.49323
 Alpha virt. eigenvalues --    3.52372   3.55430   3.60106   3.60106   3.61381
 Alpha virt. eigenvalues --    3.61858   3.62533   3.62533   3.68018   3.68018
 Alpha virt. eigenvalues --    3.72557   3.72557   3.82625   3.82625   3.85248
 Alpha virt. eigenvalues --    3.85248   3.87450   3.89554   3.89554   3.91773
 Alpha virt. eigenvalues --    4.08569   4.16973   4.17128   4.17128   4.38645
 Alpha virt. eigenvalues --    4.38645   4.41978   4.47445   4.47460   4.50799
 Alpha virt. eigenvalues --    4.55239   4.58343   4.71671   4.71671   4.72330
 Alpha virt. eigenvalues --    4.72330   4.76069   4.79823   4.89018   4.93421
 Alpha virt. eigenvalues --    4.94842   4.97173   4.98337   4.98337   5.01451
 Alpha virt. eigenvalues --    5.02068   5.02068   5.13510   5.13510   5.18336
 Alpha virt. eigenvalues --    5.25253   5.25253   5.40406   5.55024   5.55024
 Alpha virt. eigenvalues --    5.57267   5.67426   5.67426   5.79053   5.83210
 Alpha virt. eigenvalues --    5.85416   5.85416   5.88108   5.88263   5.88263
 Alpha virt. eigenvalues --    5.91422   5.91422   6.01563   6.01563   6.08735
 Alpha virt. eigenvalues --    6.08735   6.10937   6.10937   6.14889   6.17497
 Alpha virt. eigenvalues --    6.19374   6.20014   6.20583   6.20583   6.23153
 Alpha virt. eigenvalues --    6.23153   6.33486   6.33486   6.34067   6.34067
 Alpha virt. eigenvalues --    6.42724   6.42724   6.45025   6.56284   6.79624
 Alpha virt. eigenvalues --    6.79624   6.90959   7.05857   7.16421   7.16421
 Alpha virt. eigenvalues --    7.16993   7.17065   7.17065   7.29823   7.39526
 Alpha virt. eigenvalues --    7.66587   7.66587   7.78819   7.87803   7.87803
 Alpha virt. eigenvalues --    7.92242   7.92242   7.98293   7.98293   8.12317
 Alpha virt. eigenvalues --    8.12317   8.25037   8.25037   8.38377   8.48006
 Alpha virt. eigenvalues --    8.48006   8.51196   8.51196   8.90859   8.90859
 Alpha virt. eigenvalues --    8.92554   8.92554   9.05112   9.05112   9.21458
 Alpha virt. eigenvalues --    9.21458   9.23829   9.23829   9.29251   9.31783
 Alpha virt. eigenvalues --    9.40761   9.42700   9.43547   9.62852   9.62852
 Alpha virt. eigenvalues --    9.63308   9.63308   9.69518   9.89844  10.14102
 Alpha virt. eigenvalues --   10.60951  21.26568  21.26568  21.35883  21.35883
 Alpha virt. eigenvalues --   21.38310  21.38310  21.51940  21.51940  21.60919
 Alpha virt. eigenvalues --   21.60919  21.62186  21.62186  21.64540  21.68297
 Alpha virt. eigenvalues --   21.99453  22.44736  22.54997  22.63525  22.83234
 Alpha virt. eigenvalues --   23.40034  23.43596  24.28226  26.66015  26.93914
          Condensed to atoms (all electrons):
               1          2          3          4          5          6
     1  C    4.947926   0.519976   0.731796  -0.279816  -0.127429  -0.055029
     2  C    0.519976   4.947926  -0.279816   0.731796  -0.055029  -0.127429
     3  C    0.731796  -0.279816   5.629262  -0.059501   0.391789   0.005195
     4  C   -0.279816   0.731796  -0.059501   5.629262   0.005195   0.391789
     5  C   -0.127429  -0.055029   0.391789   0.005195   4.893519  -0.000414
     6  C   -0.055029  -0.127429   0.005195   0.391789  -0.000414   4.893519
     7  H   -0.001921   0.001103  -0.062042   0.000260   0.419559  -0.000015
     8  H   -0.001921   0.001103  -0.062042   0.000260   0.419559  -0.000015
     9  H   -0.001921   0.001103  -0.062042   0.000260   0.419559  -0.000015
    10  H    0.001103  -0.001921   0.000260  -0.062042  -0.000015   0.419559
    11  H    0.001103  -0.001921   0.000260  -0.062042  -0.000015   0.419559
    12  H    0.001103  -0.001921   0.000260  -0.062042  -0.000015   0.419559
               7          8          9         10         11         12
     1  C   -0.001921  -0.001921  -0.001921   0.001103   0.001103   0.001103
     2  C    0.001103   0.001103   0.001103  -0.001921  -0.001921  -0.001921
     3  C   -0.062042  -0.062042  -0.062042   0.000260   0.000260   0.000260
     4  C    0.000260   0.000260   0.000260  -0.062042  -0.062042  -0.062042
     5  C    0.419559   0.419559   0.419559  -0.000015  -0.000015  -0.000015
     6  C   -0.000015  -0.000015  -0.000015   0.419559   0.419559   0.419559
     7  H    0.611123  -0.039803  -0.039803  -0.000001   0.000000   0.000000
     8  H   -0.039803   0.611123  -0.039803   0.000000   0.000000  -0.000001
     9  H   -0.039803  -0.039803   0.611123   0.000000  -0.000001   0.000000
    10  H   -0.000001   0.000000   0.000000   0.611123  -0.039803  -0.039803
    11  H    0.000000   0.000000  -0.000001  -0.039803   0.611123  -0.039803
    12  H    0.000000  -0.000001   0.000000  -0.039803  -0.039803   0.611123
          Atomic-Atomic Spin Densities.
               1          2          3          4          5          6
     1  C    0.000000   0.000000   0.000000   0.000000  -0.000000  -0.000000
     2  C    0.000000   0.000000   0.000000   0.000000  -0.000000  -0.000000
     3  C    0.000000   0.000000   0.000000  -0.000000   0.000000   0.000000
     4  C    0.000000   0.000000  -0.000000   0.000000   0.000000   0.000000
     5  C   -0.000000  -0.000000   0.000000   0.000000   0.000000  -0.000000
     6  C   -0.000000  -0.000000   0.000000   0.000000  -0.000000   0.000000
     7  H   -0.000000   0.000000  -0.000000   0.000000   0.000000  -0.000000
     8  H   -0.000000   0.000000  -0.000000   0.000000   0.000000  -0.000000
     9  H   -0.000000   0.000000  -0.000000   0.000000   0.000000  -0.000000
    10  H    0.000000   0.000000   0.000000  -0.000000  -0.000000   0.000000
    11  H    0.000000  -0.000000   0.000000  -0.000000  -0.000000   0.000000
    12  H    0.000000  -0.000000   0.000000  -0.000000  -0.000000   0.000000
               7          8          9         10         11         12
     1  C   -0.000000  -0.000000  -0.000000   0.000000   0.000000   0.000000
     2  C    0.000000   0.000000   0.000000   0.000000  -0.000000  -0.000000
     3  C   -0.000000  -0.000000  -0.000000   0.000000   0.000000   0.000000
     4  C    0.000000   0.000000   0.000000  -0.000000  -0.000000  -0.000000
     5  C    0.000000   0.000000   0.000000  -0.000000  -0.000000  -0.000000
     6  C   -0.000000  -0.000000  -0.000000   0.000000   0.000000   0.000000
     7  H    0.000000  -0.000000  -0.000000  -0.000000   0.000000   0.000000
     8  H   -0.000000   0.000000  -0.000000   0.000000   0.000000  -0.000000
     9  H   -0.000000  -0.000000   0.000000   0.000000  -0.000000   0.000000
    10  H   -0.000000   0.000000   0.000000   0.000000  -0.000000  -0.000000
    11  H    0.000000   0.000000  -0.000000  -0.000000   0.000000  -0.000000
    12  H    0.000000  -0.000000   0.000000  -0.000000  -0.000000   0.000000
 Mulliken charges and spin densities:
               1          2
     1  C    0.265029   0.000000
     2  C    0.265029   0.000000
     3  C   -0.233379   0.000000
     4  C   -0.233379   0.000000
     5  C   -0.366263   0.000000
     6  C   -0.366263   0.000000
     7  H    0.111538   0.000000
     8  H    0.111538   0.000000
     9  H    0.111538   0.000000
    10  H    0.111538   0.000000
    11  H    0.111538   0.000000
    12  H    0.111538   0.000000
 Sum of Mulliken charges =  -0.00000   0.00000
 Mulliken charges and spin densities with hydrogens summed into heavy atoms:
               1          2
     1  C    0.265029   0.000000
     2  C    0.265029   0.000000
     3  C   -0.233379   0.000000
     4  C   -0.233379   0.000000
     5  C   -0.031650   0.000000
     6  C   -0.031650   0.000000
 Electronic spatial extent (au):  <R**2>=           1041.7217
 Charge=             -0.0000 electrons
 Dipole moment (field-independent basis, Debye):
    X=             -0.0000    Y=             -0.0000    Z=             -0.0000  Tot=              0.0000
 Quadrupole moment (field-independent basis, Debye-Ang):
   XX=            -37.2804   YY=            -37.2804   ZZ=            -19.2952
   XY=              0.0000   XZ=              0.0000   YZ=              0.0000
 Traceless Quadrupole moment (field-independent basis, Debye-Ang):
   XX=             -5.9951   YY=             -5.9951   ZZ=             11.9901
   XY=              0.0000   XZ=              0.0000   YZ=              0.0000
 Octapole moment (field-independent basis, Debye-Ang**2):
  XXX=             -0.0000  YYY=              1.4309  ZZZ=             -0.0000  XYY=             -0.0000
  XXY=             -1.4309  XXZ=              0.0000  XZZ=             -0.0000  YZZ=              0.0000
  YYZ=              0.0000  XYZ=             -0.0000
 Hexadecapole moment (field-independent basis, Debye-Ang**3):
 XXXX=            -55.3003 YYYY=            -55.3003 ZZZZ=          -1134.7074 XXXY=              0.0000
 XXXZ=              0.0000 YYYX=             -0.0000 YYYZ=              0.0000 ZZZX=              0.0000
 ZZZY=              0.0000 XXYY=            -18.4334 XXZZ=           -223.3179 YYZZ=           -223.3179
 XXYZ=             -0.0000 YYXZ=              0.0000 ZZXY=              0.0000
 N-N= 1.706235136307D+02 E-N=-8.779173155263D+02  KE= 2.304429486294D+02
 Symmetry A1   KE= 1.125762151445D+02
 Symmetry A2   KE= 4.262764314862D+00
 Symmetry B1   KE= 4.006548673251D+00
 Symmetry B2   KE= 1.095974204967D+02
 Symmetry A1   SP= 4.104965382596D-15
 Symmetry A2   SP= 8.968839548065D-16
 Symmetry B1   SP= 8.713797976224D-16
 Symmetry B2   SP= 3.599402065389D-15
                          Isotropic Fermi Contact Couplings
        Atom                 a.u.       MegaHertz       Gauss      10(-4) cm-1
     1  C(13)              0.00000       0.00000       0.00000       0.00000
     2  C(13)              0.00000       0.00000       0.00000       0.00000
     3  C(13)              0.00000       0.00000       0.00000       0.00000
     4  C(13)              0.00000       0.00000       0.00000       0.00000
     5  C(13)              0.00000       0.00000       0.00000       0.00000
     6  C(13)              0.00000       0.00000       0.00000       0.00000
     7  H(1)               0.00000       0.00000       0.00000       0.00000
     8  H(1)               0.00000       0.00000       0.00000       0.00000
     9  H(1)               0.00000       0.00000       0.00000       0.00000
    10  H(1)               0.00000       0.00000       0.00000       0.00000
    11  H(1)               0.00000       0.00000       0.00000       0.00000
    12  H(1)               0.00000       0.00000       0.00000       0.00000
 --------------------------------------------------------
       Center         ----  Spin Dipole Couplings  ----
                      3XX-RR        3YY-RR        3ZZ-RR
 --------------------------------------------------------
     1   Atom        0.000000      0.000000      0.000000
     2   Atom        0.000000      0.000000      0.000000
     3   Atom        0.000000      0.000000      0.000000
     4   Atom        0.000000      0.000000      0.000000
     5   Atom        0.000000      0.000000      0.000000
     6   Atom        0.000000      0.000000      0.000000
     7   Atom        0.000000      0.000000      0.000000
     8   Atom        0.000000      0.000000      0.000000
     9   Atom        0.000000      0.000000      0.000000
    10   Atom        0.000000      0.000000      0.000000
    11   Atom        0.000000      0.000000      0.000000
    12   Atom        0.000000      0.000000      0.000000
 --------------------------------------------------------
                        XY            XZ            YZ
 --------------------------------------------------------
     1   Atom        0.000000      0.000000      0.000000
     2   Atom        0.000000      0.000000      0.000000
     3   Atom        0.000000      0.000000      0.000000
     4   Atom        0.000000      0.000000      0.000000
     5   Atom        0.000000      0.000000      0.000000
     6   Atom        0.000000      0.000000      0.000000
     7   Atom        0.000000      0.000000      0.000000
     8   Atom        0.000000      0.000000      0.000000
     9   Atom        0.000000      0.000000      0.000000
    10   Atom        0.000000      0.000000      0.000000
    11   Atom        0.000000      0.000000      0.000000
    12   Atom        0.000000      0.000000      0.000000
 --------------------------------------------------------


 ---------------------------------------------------------------------------------
              Anisotropic Spin Dipole Couplings in Principal Axis System
 ---------------------------------------------------------------------------------

       Atom             a.u.   MegaHertz   Gauss  10(-4) cm-1        Axes

              Baa     0.0000     0.000     0.000     0.000  1.0000  0.0000  0.0000
     1 C(13)  Bbb     0.0000     0.000     0.000     0.000 -0.0000  1.0000  0.0000
              Bcc     0.0000     0.000     0.000     0.000  0.0000  0.0000  1.0000
 
              Baa     0.0000     0.000     0.000     0.000  1.0000  0.0000  0.0000
     2 C(13)  Bbb     0.0000     0.000     0.000     0.000 -0.0000  1.0000  0.0000
              Bcc     0.0000     0.000     0.000     0.000  0.0000  0.0000  1.0000
 
              Baa     0.0000     0.000     0.000     0.000  1.0000  0.0000  0.0000
     3 C(13)  Bbb     0.0000     0.000     0.000     0.000 -0.0000  1.0000  0.0000
              Bcc     0.0000     0.000     0.000     0.000  0.0000  0.0000  1.0000
 
              Baa     0.0000     0.000     0.000     0.000  1.0000  0.0000  0.0000
     4 C(13)  Bbb     0.0000     0.000     0.000     0.000 -0.0000  1.0000  0.0000
              Bcc     0.0000     0.000     0.000     0.000  0.0000  0.0000  1.0000
 
              Baa     0.0000     0.000     0.000     0.000  1.0000  0.0000  0.0000
     5 C(13)  Bbb     0.0000     0.000     0.000     0.000 -0.0000  1.0000  0.0000
              Bcc     0.0000     0.000     0.000     0.000  0.0000  0.0000  1.0000
 
              Baa     0.0000     0.000     0.000     0.000  1.0000  0.0000  0.0000
     6 C(13)  Bbb     0.0000     0.000     0.000     0.000 -0.0000  1.0000  0.0000
              Bcc     0.0000     0.000     0.000     0.000  0.0000  0.0000  1.0000
 
              Baa     0.0000     0.000     0.000     0.000  1.0000  0.0000  0.0000
     7 H(1)   Bbb     0.0000     0.000     0.000     0.000 -0.0000  1.0000  0.0000
              Bcc     0.0000     0.000     0.000     0.000  0.0000  0.0000  1.0000
 
              Baa     0.0000     0.000     0.000     0.000  1.0000  0.0000  0.0000
     8 H(1)   Bbb     0.0000     0.000     0.000     0.000 -0.0000  1.0000  0.0000
              Bcc     0.0000     0.000     0.000     0.000  0.0000  0.0000  1.0000
 
              Baa     0.0000     0.000     0.000     0.000  1.0000  0.0000  0.0000
     9 H(1)   Bbb     0.0000     0.000     0.000     0.000 -0.0000  1.0000  0.0000
              Bcc     0.0000     0.000     0.000     0.000  0.0000  0.0000  1.0000
 
              Baa     0.0000     0.000     0.000     0.000  1.0000  0.0000  0.0000
    10 H(1)   Bbb     0.0000     0.000     0.000     0.000 -0.0000  1.0000  0.0000
              Bcc     0.0000     0.000     0.000     0.000  0.0000  0.0000  1.0000
 
              Baa     0.0000     0.000     0.000     0.000  1.0000  0.0000  0.0000
    11 H(1)   Bbb     0.0000     0.000     0.000     0.000 -0.0000  1.0000  0.0000
              Bcc     0.0000     0.000     0.000     0.000  0.0000  0.0000  1.0000
 
              Baa     0.0000     0.000     0.000     0.000  1.0000  0.0000  0.0000
    12 H(1)   Bbb     0.0000     0.000     0.000     0.000 -0.0000  1.0000  0.0000
              Bcc     0.0000     0.000     0.000     0.000  0.0000  0.0000  1.0000
 

 ---------------------------------------------------------------------------------

 1\1\GINC-GAMBA\SP\ROHF\Gen\C6H6\IRIKURA\03-Oct-2023\0\\# rohf/gen geom
 =check guess=check\\2,4-hexadiyne, ROHF/cc-pVTZ-F12\\0,1\C,0.,-0.00000
 00476,0.681831\C,0.,-0.0000000476,-0.681831\C,0.,-0.0000000476,1.88937
 6\C,0.,-0.0000000476,-1.889376\C,0.,-0.0000000476,3.340393\C,0.,-0.000
 0000476,-3.340393\H,0.,1.018581,3.733455\H,-0.8821170631,-0.5092905714
 ,3.733455\H,0.8821170631,-0.5092905714,3.733455\H,0.,1.018581,-3.73345
 5\H,0.8821170631,-0.5092905714,-3.733455\H,-0.8821170631,-0.5092905714
 ,-3.733455\\Version=ES64L-G16RevB.01\State=1-A1'\HF=-230.6836354\RMSD=
 6.941e-09\Dipole=0.,0.,0.\Quadrupole=-4.4571789,-4.4571789,8.9143578,0
 .,0.,0.\PG=D03H [C3(C1C1C1.C1C1C1),3SGV(H2)]\\@


 HICKORY, DICKORY, DOCK
 TWO MICE RAN UP THE CLOCK
 THE CLOCK STRUCK ONE...
 THE OTHER ESCAPED WITH MINOR INJURIES.
 Job cpu time:       0 days  0 hours  4 minutes 44.0 seconds.
 Elapsed time:       0 days  0 hours  1 minutes 11.1 seconds.
 File lengths (MBytes):  RWF=    134 Int=      0 D2E=      0 Chk=     16 Scr=      1
 Normal termination of Gaussian 16 at Tue Oct  3 14:36:36 2023.
