 Entering Gaussian System, Link 0=g16
 AtFile(1): pcseg2.gbs
            -H     0
            S   4   1.00
                  0.754732D+02           0.427821D-02
                  0.113575D+02           0.328672D-01
                  0.260081D+01           0.159578D+00
                  0.735503D+00           0.500000D+00
            S   1   1.00
                  0.231761D+00           1.0000000
            S   1   1.00
                  0.741675D-01           1.0000000
            P   1   1.00
                  0.160000D+01           1.0000000
            P   1   1.00
                  0.450000D+00           1.0000000
            D   1   1.00
                  0.125000D+01           1.0000000
            ****
            -C     0
            S   7   1.00
                  0.731999D+04           0.695369D-03
                  0.109818D+04           0.537138D-02
                  0.250014D+03           0.274734D-01
                  0.707586D+02           0.105078D+00
                  0.228595D+02           0.291262D+00
                  0.803936D+01           0.500000D+00
                  0.289309D+01           0.362224D+00
            S   2   1.00
                  0.521640D+01          -0.957844D-01
                  0.556124D+00           0.500000D+00
            S   1   1.00
                  0.228813D+00           1.0000000
            S   1   1.00
                  0.936338D-01           1.0000000
            P   4   1.00
                  0.339855D+02           0.818395D-02
                  0.772957D+01           0.586921D-01
                  0.224954D+01           0.222514D+00
                  0.767681D+00           0.500000D+00
            P   1   1.00
                  0.263283D+00           1.0000000
            P   1   1.00
                  0.848744D-01           1.0000000
            D   1   1.00
                  0.140000D+01           1.0000000
            D   1   1.00
                  0.450000D+00           1.0000000
            F   1   1.00
                  0.950000D+00           1.0000000
            ****
            -O     0
            S   7   1.00
                  0.135887D+05           0.665492D-03
                  0.203847D+04           0.514222D-02
                  0.464041D+03           0.263472D-01
                  0.131339D+03           0.101500D+00
                  0.425340D+02           0.285877D+00
                  0.150429D+02           0.500000D+00
                  0.546616D+01           0.368211D+00
            S   2   1.00
                  0.100915D+02          -0.100084D+00
                  0.110429D+01           0.500000D+00
            S   1   1.00
                  0.448082D+00           1.0000000
            S   1   1.00
                  0.175325D+00           1.0000000
            P   4   1.00
                  0.608220D+02           0.908253D-02
                  0.140332D+02           0.645878D-01
                  0.418244D+01           0.241502D+00
                  0.142490D+01           0.500000D+00
            P   1   1.00
                  0.478741D+00           1.0000000
            P   1   1.00
                  0.146257D+00           1.0000000
            D   1   1.00
                  0.220000D+01           1.0000000
            D   1   1.00
                  0.650000D+00           1.0000000
            F   1   1.00
                  0.110000D+01           1.0000000
            ****
            -N     0
            S   7   1.00
                  0.101643D+05           0.682757D-03
                  0.152481D+04           0.527488D-02
                  0.347119D+03           0.270037D-01
                  0.982389D+02           0.103673D+00
                  0.317799D+02           0.289575D+00
                  0.112240D+02           0.500000D+00
                  0.406611D+01           0.364621D+00
            S   2   1.00
                  0.747898D+01          -0.975681D-01
                  0.805040D+00           0.500000D+00
            S   1   1.00
                  0.324626D+00           1.0000000
            S   1   1.00
                  0.128132D+00           1.0000000
            P   4   1.00
                  0.482704D+02           0.829547D-02
                  0.110815D+02           0.596223D-01
                  0.326643D+01           0.227889D+00
                  0.111680D+01           0.500000D+00
            P   1   1.00
                  0.382049D+00           1.0000000
            P   1   1.00
                  0.121222D+00           1.0000000
            D   1   1.00
                  0.180000D+01           1.0000000
            D   1   1.00
                  0.550000D+00           1.0000000
            F   1   1.00
                  0.102000D+01           1.0000000
            ****
            -F     0
            S   7   1.00
                  0.174507D+05           0.655972D-03
                  0.261768D+04           0.506944D-02
                  0.595857D+03           0.259899D-01
                  0.168651D+03           0.100353D+00
                  0.546654D+02           0.284095D+00
                  0.193717D+02           0.500000D+00
                  0.706202D+01           0.370721D+00
            S   2   1.00
                  0.131197D+02          -0.101997D+00
                  0.145046D+01           0.500000D+00
            S   1   1.00
                  0.588255D+00           1.0000000
            S   1   1.00
                  0.227960D+00           1.0000000
            P   4   1.00
                  0.779407D+02           0.931135D-02
                  0.180425D+02           0.663964D-01
                  0.542342D+01           0.246386D+00
                  0.184876D+01           0.500000D+00
            P   1   1.00
                  0.617455D+00           1.0000000
            P   1   1.00
                  0.185496D+00           1.0000000
            D   1   1.00
                  0.280000D+01           1.0000000
            D   1   1.00
                  0.800000D+00           1.0000000
            F   1   1.00
                  0.120000D+01           1.0000000
            ****
            -Cl     0
            S   8   1.00
                  0.154272D+06           0.222473D-03
                  0.231232D+05           0.172590D-02
                  0.526257D+04           0.899286D-02
                  0.148995D+04           0.367724D-01
                  0.485417D+03           0.121446D+00
                  0.174634D+03           0.304148D+00
                  0.672393D+02           0.500000D+00
                  0.265780D+02           0.360252D+00
            S   3   1.00
                  0.131826D+03          -0.531330D-01
                  0.400703D+02          -0.233346D+00
                  0.789448D+01           0.500000D+00
            S   2   1.00
                  0.427711D+01           0.500000D+00
                  0.196233D+01           0.370517D+00
            S   1   1.00
                  0.520793D+00           1.0000000
            S   1   1.00
                  0.181633D+00           1.0000000
            P   7   1.00
                  0.124440D+04           0.988206D-03
                  0.295109D+03           0.829674D-02
                  0.947224D+02           0.430906D-01
                  0.352588D+02           0.148443D+00
                  0.144211D+02           0.344744D+00
                  0.610371D+01           0.500000D+00
                  0.258886D+01           0.348278D+00
            P   2   1.00
                  0.109447D+02          -0.196768D-01
                  0.104413D+01           0.500000D+00
            P   1   1.00
                  0.376184D+00           1.0000000
            P   1   1.00
                  0.120613D+00           1.0000000
            D   1   1.00
                  0.231000D+01           1.0000000
            D   1   1.00
                  0.520000D+00           1.0000000
            F   1   1.00
                  0.720000D+00           1.0000000
            ****
            -S     0
            S   8   1.00
                  0.134700D+06           0.226231D-03
                  0.201904D+05           0.175488D-02
                  0.459528D+04           0.914190D-02
                  0.130109D+04           0.373551D-01
                  0.423902D+03           0.123121D+00
                  0.152485D+03           0.306801D+00
                  0.586925D+02           0.500000D+00
                  0.231461D+02           0.354358D+00
            S   3   1.00
                  0.116327D+03          -0.491772D-01
                  0.352841D+02          -0.215962D+00
                  0.677831D+01           0.500000D+00
            S   2   1.00
                  0.360404D+01           0.500000D+00
                  0.164871D+01           0.366278D+00
            S   1   1.00
                  0.421821D+00           1.0000000
            S   1   1.00
                  0.147554D+00           1.0000000
            P   7   1.00
                  0.104863D+04           0.105273D-02
                  0.248717D+03           0.879338D-02
                  0.797887D+02           0.453358D-01
                  0.296023D+02           0.154476D+00
                  0.120627D+02           0.352366D+00
                  0.507628D+01           0.500000D+00
                  0.213375D+01           0.346429D+00
            P   2   1.00
                  0.928958D+01          -0.185932D-01
                  0.837819D+00           0.500000D+00
            P   1   1.00
                  0.301495D+00           1.0000000
            P   1   1.00
                  0.974740D-01           1.0000000
            D   1   1.00
                  0.210000D+01           1.0000000
            D   1   1.00
                  0.480000D+00           1.0000000
            F   1   1.00
                  0.660000D+00           1.0000000
            ****
            -Br     0
            S    10   1.00
                  0.233625D+07           0.532336D-04
                  0.349961D+06           0.413715D-03
                  0.796444D+05           0.217123D-02
                  0.225555D+05           0.910109D-02
                  0.735546D+04           0.323789D-01
                  0.265352D+04           0.988755D-01
                  0.103517D+04           0.248138D+00
                  0.422205D+03           0.474328D+00
                  0.180035D+03           0.500000D+00
                  0.793308D+02           0.187769D+00
            S    4   1.00
                  0.620834D+03          -0.226511D-01
                  0.190829D+03          -0.109497D+00
                  0.312505D+02           0.500000D+00
                  0.135270D+02           0.492812D+00
            S    2   1.00
                  0.216097D+02          -0.165418D+00
                  0.372566D+01           0.500000D+00
            S    1   1.00
                  0.169770D+01           1.0000000
            S    1   1.00
                  0.489332D+00           1.0000000
            S    1   1.00
                  0.175712D+00           1.0000000
            P    8   1.00
                  0.960829D+04           0.478974D-03
                  0.227618D+04           0.417853D-02
                  0.736723D+03           0.229315D-01
                  0.281579D+03           0.892653D-01
                  0.118395D+03           0.255288D+00
                  0.527481D+02           0.479074D+00
                  0.245098D+02           0.500000D+00
                  0.112009D+02           0.200944D+00
            P    4   1.00
                  0.587849D+02          -0.189674D-01
                  0.918962D+01           0.264104D+00
                  0.413895D+01           0.500000D+00
                  0.184225D+01           0.319316D+00
            P    1   1.00
                  0.713862D+00           1.0000000
            P    1   1.00
                  0.274232D+00           1.0000000
            P    1   1.00
                  0.944411D-01           1.0000000
            D    7   1.00
                  0.398470D+03           0.204066D-02
                  0.118967D+03           0.175171D-01
                  0.450197D+02           0.829708D-01
                  0.190320D+02           0.236284D+00
                  0.855686D+01           0.428468D+00
                  0.382950D+01           0.500000D+00
                  0.166291D+01           0.349360D+00
            D    1   1.00
                  0.672953D+00           1.0000000
            D    1   1.00
                  0.252000D+00           1.0000000
            F    1   1.00
                  0.530000D+00           1.0000000
            ****
            -Si     0
            S    8   1.00
                  0.996133D+05           0.235546D-03
                  0.149311D+05           0.182707D-02
                  0.339820D+04           0.951425D-02
                  0.962140D+03           0.388172D-01
                  0.313430D+03           0.127328D+00
                  0.112683D+03           0.313522D+00
                  0.433372D+02           0.500000D+00
                  0.170029D+02           0.340347D+00
            S    3   1.00
                  0.884208D+02          -0.404451D-01
                  0.266756D+02          -0.178059D+00
                  0.479640D+01           0.500000D+00
            S    2   1.00
                  0.239385D+01           0.500000D+00
                  0.108333D+01           0.338016D+00
            S    1   1.00
                  0.252420D+00           1.0000000
            S    1   1.00
                  0.891210D-01           1.0000000
            P    7   1.00
                  0.709901D+03           0.123028D-02
                  0.168426D+03           0.101366D-01
                  0.539946D+02           0.511840D-01
                  0.198646D+02           0.169967D+00
                  0.801369D+01           0.370717D+00
                  0.331870D+01           0.500000D+00
                  0.136112D+01           0.344128D+00
            P    2   1.00
                  0.622158D+01          -0.166609D-01
                  0.503049D+00           0.500000D+00
            P    1   1.00
                  0.179848D+00           1.0000000
            P    1   1.00
                  0.591912D-01           1.0000000
            D    1   1.00
                  0.168000D+01           1.0000000
            D    1   1.00
                  0.380000D+00           1.0000000
            F    1   1.00
                  0.540000D+00           1.0000000
            ****
            -P     0
            S    8   1.00
                  0.116416D+06           0.230715D-03
                  0.174500D+05           0.178960D-02
                  0.397149D+04           0.932116D-02
                  0.112447D+04           0.380591D-01
                  0.366347D+03           0.125148D+00
                  0.131757D+03           0.310022D+00
                  0.506988D+02           0.500000D+00
                  0.199436D+02           0.347528D+00
            S    3   1.00
                  0.101878D+03          -0.446755D-01
                  0.308249D+02          -0.196376D+00
                  0.573688D+01           0.500000D+00
            S    2   1.00
                  0.296868D+01           0.500000D+00
                  0.135315D+01           0.355098D+00
            S    1   1.00
                  0.332196D+00           1.0000000
            S    1   1.00
                  0.116229D+00           1.0000000
            P    7   1.00
                  0.873928D+03           0.112375D-02
                  0.207298D+03           0.933330D-02
                  0.664628D+02           0.477213D-01
                  0.245665D+02           0.160733D+00
                  0.996820D+01           0.359760D+00
                  0.416536D+01           0.500000D+00
                  0.173022D+01           0.346593D+00
            P    2   1.00
                  0.772530D+01          -0.175718D-01
                  0.657252D+00           0.500000D+00
            P    1   1.00
                  0.239903D+00           1.0000000
            P    1   1.00
                  0.800988D-01           1.0000000
            D    1   1.00
                  0.189000D+01           1.0000000
            D    1   1.00
                  0.430000D+00           1.0000000
            F    1   1.00
                  0.600000D+00           1.0000000
            ****
            
 Initial command:
 /usr/local/apps/g16_b01_avx/g16/l1.exe "/wrk/irikura/Gau-261304.inp" -scrdir="/wrk/irikura/"
 Entering Link 1 = /usr/local/apps/g16_b01_avx/g16/l1.exe PID=    261306.
  
 Copyright (c) 1988-2017, Gaussian, Inc.  All Rights Reserved.
  
 This is part of the Gaussian(R) 16 program.  It is based on
 the Gaussian(R) 09 system (copyright 2009, Gaussian, Inc.),
 the Gaussian(R) 03 system (copyright 2003, Gaussian, Inc.),
 the Gaussian(R) 98 system (copyright 1998, Gaussian, Inc.),
 the Gaussian(R) 94 system (copyright 1995, Gaussian, Inc.),
 the Gaussian 92(TM) system (copyright 1992, Gaussian, Inc.),
 the Gaussian 90(TM) system (copyright 1990, Gaussian, Inc.),
 the Gaussian 88(TM) system (copyright 1988, Gaussian, Inc.),
 the Gaussian 86(TM) system (copyright 1986, Carnegie Mellon
 University), and the Gaussian 82(TM) system (copyright 1983,
 Carnegie Mellon University). Gaussian is a federally registered
 trademark of Gaussian, Inc.
  
 This software contains proprietary and confidential information,
 including trade secrets, belonging to Gaussian, Inc.
  
 This software is provided under written license and may be
 used, copied, transmitted, or stored only in accord with that
 written license.
  
 The following legend is applicable only to US Government
 contracts under FAR:
  
                    RESTRICTED RIGHTS LEGEND
  
 Use, reproduction and disclosure by the US Government is
 subject to restrictions as set forth in subparagraphs (a)
 and (c) of the Commercial Computer Software - Restricted
 Rights clause in FAR 52.227-19.
  
 Gaussian, Inc.
 340 Quinnipiac St., Bldg. 40, Wallingford CT 06492
  
  
 ---------------------------------------------------------------
 Warning -- This program may not be used in any manner that
 competes with the business of Gaussian, Inc. or will provide
 assistance to any competitor of Gaussian, Inc.  The licensee
 of this program is prohibited from giving any competitor of
 Gaussian, Inc. access to this program.  By using this program,
 the user acknowledges that Gaussian, Inc. is engaged in the
 business of creating and licensing software in the field of
 computational chemistry and represents and warrants to the
 licensee that it is not a competitor of Gaussian, Inc. and that
 it will not use this program in any manner prohibited above.
 ---------------------------------------------------------------
  

 Cite this work as:
 Gaussian 16, Revision B.01,
 M. J. Frisch, G. W. Trucks, H. B. Schlegel, G. E. Scuseria, 
 M. A. Robb, J. R. Cheeseman, G. Scalmani, V. Barone, 
 G. A. Petersson, H. Nakatsuji, X. Li, M. Caricato, A. V. Marenich, 
 J. Bloino, B. G. Janesko, R. Gomperts, B. Mennucci, H. P. Hratchian, 
 J. V. Ortiz, A. F. Izmaylov, J. L. Sonnenberg, D. Williams-Young, 
 F. Ding, F. Lipparini, F. Egidi, J. Goings, B. Peng, A. Petrone, 
 T. Henderson, D. Ranasinghe, V. G. Zakrzewski, J. Gao, N. Rega, 
 G. Zheng, W. Liang, M. Hada, M. Ehara, K. Toyota, R. Fukuda, 
 J. Hasegawa, M. Ishida, T. Nakajima, Y. Honda, O. Kitao, H. Nakai, 
 T. Vreven, K. Throssell, J. A. Montgomery, Jr., J. E. Peralta, 
 F. Ogliaro, M. J. Bearpark, J. J. Heyd, E. N. Brothers, K. N. Kudin, 
 V. N. Staroverov, T. A. Keith, R. Kobayashi, J. Normand, 
 K. Raghavachari, A. P. Rendell, J. C. Burant, S. S. Iyengar, 
 J. Tomasi, M. Cossi, J. M. Millam, M. Klene, C. Adamo, R. Cammi, 
 J. W. Ochterski, R. L. Martin, K. Morokuma, O. Farkas, 
 J. B. Foresman, and D. J. Fox, Gaussian, Inc., Wallingford CT, 2016.
 
 ******************************************
 Gaussian 16:  ES64L-G16RevB.01 20-Dec-2017
                16-Sep-2023 
 ******************************************
 %mem=500mw
 %nprocs=6
 Will use up to    6 processors via shared memory.
 ---------------------------------------
 # b3lyp/gen opt freq CPHF(Grid=OneStep)
 ---------------------------------------
 1/18=20,19=15,26=3,38=1/1,3;
 2/9=110,12=2,17=6,18=5,40=1/2;
 3/5=7,11=2,25=1,30=1,71=1,74=-5/1,2,3;
 4//1;
 5/5=2,38=5/2;
 6/7=2,8=2,9=2,10=2,28=1/1;
 7//1,2,3,16;
 1/18=20,19=15,26=3/3(2);
 2/9=110/2;
 99//99;
 2/9=110/2;
 3/5=7,6=1,11=2,25=1,30=1,71=1,74=-5,82=7/1,2,3;
 4/5=5,16=3,69=1/1;
 5/5=2,38=5/2;
 7//1,2,3,16;
 1/18=20,19=15,26=3/3(-5);
 2/9=110/2;
 6/7=2,8=2,9=2,10=2,19=2,28=1/1;
 99/9=1/99;
 -------------------------
 2-butanone, B3LYP/pcseg-2
 -------------------------
 Symbolic Z-matrix:
 Charge =  0 Multiplicity = 1
 C                     1.88842  -0.50435   0.02904 
 C                     0.52811   0.17052  -0.01703 
 C                    -0.68496  -0.75246  -0.05081 
 C                    -2.01981  -0.02095   0.04161 
 O                     0.4169    1.37513  -0.01958 
 H                     2.67319   0.23142  -0.14322 
 H                     2.04238  -0.95847   1.01407 
 H                     1.96528  -1.30972  -0.70721 
 H                    -2.85387  -0.72532  -0.00794 
 H                    -2.09977   0.53683   0.97695 
 H                    -2.12969   0.69884  -0.77125 
 H                    -0.62485  -1.34074  -0.97664 
 H                    -0.5785   -1.49042   0.75503 
 

 GradGradGradGradGradGradGradGradGradGradGradGradGradGradGradGradGradGrad
 Berny optimization.
 Initialization pass.
                           ----------------------------
                           !    Initial Parameters    !
                           ! (Angstroms and Degrees)  !
 --------------------------                            --------------------------
 ! Name  Definition              Value          Derivative Info.                !
 --------------------------------------------------------------------------------
 ! R1    R(1,2)                  1.5192         estimate D2E/DX2                !
 ! R2    R(1,6)                  1.0894         estimate D2E/DX2                !
 ! R3    R(1,7)                  1.0955         estimate D2E/DX2                !
 ! R4    R(1,8)                  1.0939         estimate D2E/DX2                !
 ! R5    R(2,3)                  1.5247         estimate D2E/DX2                !
 ! R6    R(2,5)                  1.2097         estimate D2E/DX2                !
 ! R7    R(3,4)                  1.525          estimate D2E/DX2                !
 ! R8    R(3,12)                 1.0986         estimate D2E/DX2                !
 ! R9    R(3,13)                 1.0979         estimate D2E/DX2                !
 ! R10   R(4,9)                  1.0928         estimate D2E/DX2                !
 ! R11   R(4,10)                 1.092          estimate D2E/DX2                !
 ! R12   R(4,11)                 1.0913         estimate D2E/DX2                !
 ! A1    A(2,1,6)              109.888          estimate D2E/DX2                !
 ! A2    A(2,1,7)              109.7084         estimate D2E/DX2                !
 ! A3    A(2,1,8)              111.6884         estimate D2E/DX2                !
 ! A4    A(6,1,7)              108.7167         estimate D2E/DX2                !
 ! A5    A(6,1,8)              109.8892         estimate D2E/DX2                !
 ! A6    A(7,1,8)              106.8641         estimate D2E/DX2                !
 ! A7    A(1,2,3)              116.3697         estimate D2E/DX2                !
 ! A8    A(1,2,5)              121.6494         estimate D2E/DX2                !
 ! A9    A(3,2,5)              121.9798         estimate D2E/DX2                !
 ! A10   A(2,3,4)              113.8732         estimate D2E/DX2                !
 ! A11   A(2,3,12)             107.4164         estimate D2E/DX2                !
 ! A12   A(2,3,13)             108.2709         estimate D2E/DX2                !
 ! A13   A(4,3,12)             110.8446         estimate D2E/DX2                !
 ! A14   A(4,3,13)             111.2748         estimate D2E/DX2                !
 ! A15   A(12,3,13)            104.6752         estimate D2E/DX2                !
 ! A16   A(3,4,9)              110.8641         estimate D2E/DX2                !
 ! A17   A(3,4,10)             111.1642         estimate D2E/DX2                !
 ! A18   A(3,4,11)             111.0629         estimate D2E/DX2                !
 ! A19   A(9,4,10)             108.1911         estimate D2E/DX2                !
 ! A20   A(9,4,11)             108.3308         estimate D2E/DX2                !
 ! A21   A(10,4,11)            107.0815         estimate D2E/DX2                !
 ! D1    D(6,1,2,3)            169.1214         estimate D2E/DX2                !
 ! D2    D(6,1,2,5)            -11.253          estimate D2E/DX2                !
 ! D3    D(7,1,2,3)            -71.4024         estimate D2E/DX2                !
 ! D4    D(7,1,2,5)            108.2232         estimate D2E/DX2                !
 ! D5    D(8,1,2,3)             46.8983         estimate D2E/DX2                !
 ! D6    D(8,1,2,5)           -133.4762         estimate D2E/DX2                !
 ! D7    D(1,2,3,4)            174.3255         estimate D2E/DX2                !
 ! D8    D(1,2,3,12)           -62.5364         estimate D2E/DX2                !
 ! D9    D(1,2,3,13)            49.9943         estimate D2E/DX2                !
 ! D10   D(5,2,3,4)             -5.2987         estimate D2E/DX2                !
 ! D11   D(5,2,3,12)           117.8394         estimate D2E/DX2                !
 ! D12   D(5,2,3,13)          -129.6299         estimate D2E/DX2                !
 ! D13   D(2,3,4,9)            178.8166         estimate D2E/DX2                !
 ! D14   D(2,3,4,10)           -60.7976         estimate D2E/DX2                !
 ! D15   D(2,3,4,11)            58.3219         estimate D2E/DX2                !
 ! D16   D(12,3,4,9)            57.5677         estimate D2E/DX2                !
 ! D17   D(12,3,4,10)          177.9535         estimate D2E/DX2                !
 ! D18   D(12,3,4,11)          -62.927          estimate D2E/DX2                !
 ! D19   D(13,3,4,9)           -58.483          estimate D2E/DX2                !
 ! D20   D(13,3,4,10)           61.9029         estimate D2E/DX2                !
 ! D21   D(13,3,4,11)         -178.9777         estimate D2E/DX2                !
 --------------------------------------------------------------------------------
 Trust Radius=3.00D-01 FncErr=1.00D-07 GrdErr=1.00D-06 EigMax=2.50D+02 EigMin=1.00D-04
 Number of steps in this run=     64 maximum allowed number of steps=    100.
 GradGradGradGradGradGradGradGradGradGradGradGradGradGradGradGradGradGrad

                          Input orientation:                          
 ---------------------------------------------------------------------
 Center     Atomic      Atomic             Coordinates (Angstroms)
 Number     Number       Type             X           Y           Z
 ---------------------------------------------------------------------
      1          6           0        1.888422   -0.504349    0.029036
      2          6           0        0.528112    0.170523   -0.017033
      3          6           0       -0.684955   -0.752464   -0.050806
      4          6           0       -2.019807   -0.020954    0.041607
      5          8           0        0.416901    1.375130   -0.019576
      6          1           0        2.673187    0.231421   -0.143224
      7          1           0        2.042378   -0.958471    1.014073
      8          1           0        1.965278   -1.309720   -0.707210
      9          1           0       -2.853873   -0.725319   -0.007944
     10          1           0       -2.099771    0.536834    0.976949
     11          1           0       -2.129687    0.698838   -0.771254
     12          1           0       -0.624853   -1.340743   -0.976642
     13          1           0       -0.578497   -1.490422    0.755027
 ---------------------------------------------------------------------
                    Distance matrix (angstroms):
                    1          2          3          4          5
     1  C    0.000000
     2  C    1.519216   0.000000
     3  C    2.586543   1.524656   0.000000
     4  C    3.938030   2.555776   1.524951   0.000000
     5  O    2.387505   1.209732   2.396188   2.808975   0.000000
     6  H    1.089443   2.149646   3.500527   4.703408   2.532624
     7  H    1.095549   2.151931   2.935090   4.280885   3.025938
     8  H    1.093886   2.175525   2.786599   4.254709   3.174702
     9  H    4.747584   3.498634   2.169511   1.092818   3.887156
    10  H    4.229454   2.833364   2.172619   1.091964   2.833627
    11  H    4.270050   2.812803   2.170846   1.091292   2.739982
    12  H    2.833283   2.129343   1.098570   2.173608   3.062220
    13  H    2.754105   2.139953   1.097853   2.178458   3.130849
                    6          7          8          9         10
     6  H    0.000000
     7  H    1.775697   0.000000
     8  H    1.787269   1.758447   0.000000
     9  H    5.610886   5.007210   4.904561   0.000000
    10  H    4.912147   4.403943   4.771873   1.769665   0.000000
    11  H    4.866261   4.831169   4.561485   1.770681   1.755948
    12  H    3.747446   3.350104   2.604292   2.507120   3.084995
    13  H    3.787486   2.686831   2.939657   2.518897   2.544266
                   11         12         13
    11  H    0.000000
    12  H    2.542951   0.000000
    13  H    3.086840   1.738744   0.000000
 Stoichiometry    C4H8O
 Framework group  C1[X(C4H8O)]
 Deg. of freedom    33
 Full point group                 C1      NOp   1
 Largest Abelian subgroup         C1      NOp   1
 Largest concise Abelian subgroup C1      NOp   1
                         Standard orientation:                         
 ---------------------------------------------------------------------
 Center     Atomic      Atomic             Coordinates (Angstroms)
 Number     Number       Type             X           Y           Z
 ---------------------------------------------------------------------
      1          6           0        1.888422   -0.504349    0.029036
      2          6           0        0.528112    0.170523   -0.017033
      3          6           0       -0.684955   -0.752464   -0.050806
      4          6           0       -2.019807   -0.020954    0.041607
      5          8           0        0.416901    1.375130   -0.019576
      6          1           0        2.673187    0.231421   -0.143224
      7          1           0        2.042378   -0.958471    1.014073
      8          1           0        1.965278   -1.309720   -0.707210
      9          1           0       -2.853873   -0.725318   -0.007944
     10          1           0       -2.099771    0.536834    0.976949
     11          1           0       -2.129687    0.698838   -0.771254
     12          1           0       -0.624853   -1.340743   -0.976642
     13          1           0       -0.578497   -1.490422    0.755027
 ---------------------------------------------------------------------
 Rotational constants (GHZ):           9.5514285           3.5708041           2.7320227
 General basis read from cards:  (5D, 7F)
 There are   295 symmetry adapted cartesian basis functions of A   symmetry.
 There are   262 symmetry adapted basis functions of A   symmetry.
   262 basis functions,   399 primitive gaussians,   295 cartesian basis functions
    20 alpha electrons       20 beta electrons
       nuclear repulsion energy       175.8047652698 Hartrees.
 NAtoms=   13 NActive=   13 NUniq=   13 SFac= 1.00D+00 NAtFMM=   60 NAOKFM=F Big=F
 Integral buffers will be    131072 words long.
 Raffenetti 2 integral format.
 Two-electron integral symmetry is turned on.
 One-electron integrals computed using PRISM.
 NBasis=   262 RedAO= T EigKep=  2.82D-04  NBF=   262
 NBsUse=   262 1.00D-06 EigRej= -1.00D+00 NBFU=   262
 ExpMin= 7.42D-02 ExpMax= 1.36D+04 ExpMxC= 4.64D+02 IAcc=3 IRadAn=         5 AccDes= 0.00D+00
 Harris functional with IExCor=  402 and IRadAn=       5 diagonalized for initial guess.
 HarFok:  IExCor=  402 AccDes= 0.00D+00 IRadAn=         5 IDoV= 1 UseB2=F ITyADJ=14
 ICtDFT=  3500011 ScaDFX=  1.000000  1.000000  1.000000  1.000000
 FoFCou: FMM=F IPFlag=           0 FMFlag=      100000 FMFlg1=           0
         NFxFlg=           0 DoJE=T BraDBF=F KetDBF=T FulRan=T
         wScrn=  0.000000 ICntrl=       500 IOpCl=  0 I1Cent=   200000004 NGrid=           0
         NMat0=    1 NMatS0=      1 NMatT0=    0 NMatD0=    1 NMtDS0=    0 NMtDT0=    0
 Petite list used in FoFCou.
 Requested convergence on RMS density matrix=1.00D-08 within 128 cycles.
 Requested convergence on MAX density matrix=1.00D-06.
 Requested convergence on             energy=1.00D-06.
 No special actions if energy rises.
 Integral accuracy reduced to 1.0D-05 until final iterations.
 Initial convergence to 1.0D-05 achieved.  Increase integral accuracy.
 SCF Done:  E(RB3LYP) =  -232.569403279     A.U. after   12 cycles
            NFock= 12  Conv=0.96D-08     -V/T= 2.0041

 **********************************************************************

            Population analysis using the SCF Density.

 **********************************************************************

 Orbital symmetries:
       Occupied  (A) (A) (A) (A) (A) (A) (A) (A) (A) (A) (A) (A)
                 (A) (A) (A) (A) (A) (A) (A) (A)
       Virtual   (A) (A) (A) (A) (A) (A) (A) (A) (A) (A) (A) (A)
                 (A) (A) (A) (A) (A) (A) (A) (A) (A) (A) (A) (A)
                 (A) (A) (A) (A) (A) (A) (A) (A) (A) (A) (A) (A)
                 (A) (A) (A) (A) (A) (A) (A) (A) (A) (A) (A) (A)
                 (A) (A) (A) (A) (A) (A) (A) (A) (A) (A) (A) (A)
                 (A) (A) (A) (A) (A) (A) (A) (A) (A) (A) (A) (A)
                 (A) (A) (A) (A) (A) (A) (A) (A) (A) (A) (A) (A)
                 (A) (A) (A) (A) (A) (A) (A) (A) (A) (A) (A) (A)
                 (A) (A) (A) (A) (A) (A) (A) (A) (A) (A) (A) (A)
                 (A) (A) (A) (A) (A) (A) (A) (A) (A) (A) (A) (A)
                 (A) (A) (A) (A) (A) (A) (A) (A) (A) (A) (A) (A)
                 (A) (A) (A) (A) (A) (A) (A) (A) (A) (A) (A) (A)
                 (A) (A) (A) (A) (A) (A) (A) (A) (A) (A) (A) (A)
                 (A) (A) (A) (A) (A) (A) (A) (A) (A) (A) (A) (A)
                 (A) (A) (A) (A) (A) (A) (A) (A) (A) (A) (A) (A)
                 (A) (A) (A) (A) (A) (A) (A) (A) (A) (A) (A) (A)
                 (A) (A) (A) (A) (A) (A) (A) (A) (A) (A) (A) (A)
                 (A) (A) (A) (A) (A) (A) (A) (A) (A) (A) (A) (A)
                 (A) (A) (A) (A) (A) (A) (A) (A) (A) (A) (A) (A)
                 (A) (A) (A) (A) (A) (A) (A) (A) (A) (A) (A) (A)
                 (A) (A)
 The electronic state is 1-A.
 Alpha  occ. eigenvalues --  -19.11483 -10.26497 -10.18594 -10.17953 -10.16468
 Alpha  occ. eigenvalues --   -1.04822  -0.79016  -0.74216  -0.64626  -0.53019
 Alpha  occ. eigenvalues --   -0.47825  -0.47702  -0.44720  -0.42851  -0.41279
 Alpha  occ. eigenvalues --   -0.37303  -0.36988  -0.36789  -0.35174  -0.25699
 Alpha virt. eigenvalues --   -0.02445   0.00378   0.03142   0.05286   0.05896
 Alpha virt. eigenvalues --    0.07500   0.08568   0.08952   0.10414   0.11448
 Alpha virt. eigenvalues --    0.14394   0.15116   0.16368   0.17676   0.18966
 Alpha virt. eigenvalues --    0.19742   0.22767   0.23854   0.25927   0.29244
 Alpha virt. eigenvalues --    0.30601   0.30904   0.31808   0.32462   0.34196
 Alpha virt. eigenvalues --    0.34982   0.35318   0.36110   0.36584   0.37182
 Alpha virt. eigenvalues --    0.37451   0.40849   0.41150   0.43241   0.47060
 Alpha virt. eigenvalues --    0.50939   0.52797   0.54022   0.55166   0.64951
 Alpha virt. eigenvalues --    0.68042   0.69561   0.75097   0.78425   0.80783
 Alpha virt. eigenvalues --    0.81631   0.85980   0.91652   0.92878   0.95036
 Alpha virt. eigenvalues --    0.96755   0.96960   0.97175   0.98653   1.00252
 Alpha virt. eigenvalues --    1.01947   1.03932   1.05612   1.06578   1.07866
 Alpha virt. eigenvalues --    1.09392   1.10326   1.12982   1.13647   1.14779
 Alpha virt. eigenvalues --    1.19281   1.22486   1.23714   1.25673   1.27026
 Alpha virt. eigenvalues --    1.29989   1.32466   1.33807   1.37968   1.39122
 Alpha virt. eigenvalues --    1.44959   1.47250   1.47711   1.48975   1.53206
 Alpha virt. eigenvalues --    1.57838   1.58606   1.64703   1.64895   1.68783
 Alpha virt. eigenvalues --    1.69523   1.72045   1.76474   1.77843   1.80573
 Alpha virt. eigenvalues --    1.84745   1.86814   1.88261   1.93047   1.94864
 Alpha virt. eigenvalues --    1.96450   1.97098   2.00048   2.04888   2.07427
 Alpha virt. eigenvalues --    2.11176   2.23101   2.26477   2.28224   2.34432
 Alpha virt. eigenvalues --    2.39155   2.43718   2.45845   2.50477   2.55686
 Alpha virt. eigenvalues --    2.61516   2.71976   2.74077   2.90061   2.99701
 Alpha virt. eigenvalues --    3.05786   3.08261   3.10182   3.11838   3.17284
 Alpha virt. eigenvalues --    3.19751   3.26213   3.26937   3.29149   3.34557
 Alpha virt. eigenvalues --    3.34903   3.35640   3.36972   3.41830   3.43833
 Alpha virt. eigenvalues --    3.49331   3.50609   3.57571   3.60612   3.63934
 Alpha virt. eigenvalues --    3.69481   3.70456   3.75554   3.78867   3.81063
 Alpha virt. eigenvalues --    3.81245   3.82688   3.83859   3.85043   3.85883
 Alpha virt. eigenvalues --    3.86132   3.93445   3.95784   3.96847   3.98677
 Alpha virt. eigenvalues --    4.01687   4.03180   4.04185   4.12612   4.15579
 Alpha virt. eigenvalues --    4.17975   4.19850   4.23554   4.23956   4.26079
 Alpha virt. eigenvalues --    4.27381   4.29137   4.30626   4.32864   4.36188
 Alpha virt. eigenvalues --    4.37665   4.40198   4.42769   4.43781   4.46995
 Alpha virt. eigenvalues --    4.49178   4.50769   4.53572   4.54668   4.56538
 Alpha virt. eigenvalues --    4.57334   4.60549   4.61768   4.62258   4.63404
 Alpha virt. eigenvalues --    4.64064   4.67127   4.67737   4.70559   4.72260
 Alpha virt. eigenvalues --    4.74632   4.75388   4.78486   4.83798   4.84181
 Alpha virt. eigenvalues --    4.87249   4.88448   4.89651   4.94093   4.99019
 Alpha virt. eigenvalues --    5.02171   5.04947   5.10135   5.10473   5.12863
 Alpha virt. eigenvalues --    5.19749   5.21788   5.27885   5.32737   5.37361
 Alpha virt. eigenvalues --    5.39827   5.40055   5.44014   5.47680   5.55864
 Alpha virt. eigenvalues --    5.58217   5.66083   5.68447   5.69692   5.72350
 Alpha virt. eigenvalues --    5.73561   5.77294   5.80264   5.81499   5.83020
 Alpha virt. eigenvalues --    5.84817   5.86168   5.87713   5.89547   5.91305
 Alpha virt. eigenvalues --    5.94940   6.03026   6.05233   6.07703   6.10462
 Alpha virt. eigenvalues --    6.12816   6.15420   6.16406   6.18224   6.23160
 Alpha virt. eigenvalues --    6.23446   6.25028   6.28846   6.50498   6.80491
 Alpha virt. eigenvalues --    7.00731   7.56496
          Condensed to atoms (all electrons):
               1          2          3          4          5          6
     1  C    4.741077   0.339278  -0.133502   0.016037  -0.097675   0.425211
     2  C    0.339278   4.720874   0.262228  -0.040905   0.595020  -0.043441
     3  C   -0.133502   0.262228   4.967766   0.276711  -0.114915   0.011501
     4  C    0.016037  -0.040905   0.276711   4.565448   0.023392  -0.001260
     5  O   -0.097675   0.595020  -0.114915   0.023392   7.974885   0.007744
     6  H    0.425211  -0.043441   0.011501  -0.001260   0.007744   0.568606
     7  H    0.404753  -0.020175   0.000109  -0.001053  -0.000307  -0.012173
     8  H    0.401797  -0.031130   0.012140   0.000114   0.003043  -0.020362
     9  H   -0.000284   0.013764  -0.043757   0.427220   0.000424   0.000052
    10  H   -0.000578  -0.012831  -0.028821   0.429027   0.001756  -0.000107
    11  H    0.000801  -0.014132  -0.023365   0.424032   0.003865  -0.000056
    12  H   -0.006995  -0.020656   0.414537  -0.024178  -0.000098  -0.000713
    13  H    0.007054  -0.032271   0.417646  -0.037099   0.002010   0.000211
               7          8          9         10         11         12
     1  C    0.404753   0.401797  -0.000284  -0.000578   0.000801  -0.006995
     2  C   -0.020175  -0.031130   0.013764  -0.012831  -0.014132  -0.020656
     3  C    0.000109   0.012140  -0.043757  -0.028821  -0.023365   0.414537
     4  C   -0.001053   0.000114   0.427220   0.429027   0.424032  -0.024178
     5  O   -0.000307   0.003043   0.000424   0.001756   0.003865  -0.000098
     6  H   -0.012173  -0.020362   0.000052  -0.000107  -0.000056  -0.000713
     7  H    0.616495  -0.029130  -0.000012   0.000108  -0.000125   0.001202
     8  H   -0.029130   0.632835  -0.000021  -0.000091  -0.000061  -0.000014
     9  H   -0.000012  -0.000021   0.647276  -0.029500  -0.029338  -0.005929
    10  H    0.000108  -0.000091  -0.029500   0.627115  -0.018483   0.009447
    11  H   -0.000125  -0.000061  -0.029338  -0.018483   0.618373  -0.006813
    12  H    0.001202  -0.000014  -0.005929   0.009447  -0.006813   0.644015
    13  H   -0.000436  -0.001857  -0.005985  -0.007552   0.009500  -0.033869
              13
     1  C    0.007054
     2  C   -0.032271
     3  C    0.417646
     4  C   -0.037099
     5  O    0.002010
     6  H    0.000211
     7  H   -0.000436
     8  H   -0.001857
     9  H   -0.005985
    10  H   -0.007552
    11  H    0.009500
    12  H   -0.033869
    13  H    0.655886
 Mulliken charges:
               1
     1  C   -0.096975
     2  C    0.284377
     3  C   -0.018277
     4  C   -0.057486
     5  O   -0.399144
     6  H    0.064787
     7  H    0.040745
     8  H    0.032738
     9  H    0.026090
    10  H    0.030512
    11  H    0.035803
    12  H    0.030067
    13  H    0.026763
 Sum of Mulliken charges =  -0.00000
 Mulliken charges with hydrogens summed into heavy atoms:
               1
     1  C    0.041295
     2  C    0.284377
     3  C    0.038553
     4  C    0.034919
     5  O   -0.399144
 Electronic spatial extent (au):  <R**2>=            492.4020
 Charge=             -0.0000 electrons
 Dipole moment (field-independent basis, Debye):
    X=              0.1835    Y=             -2.9237    Z=              0.0244  Tot=              2.9296
 Quadrupole moment (field-independent basis, Debye-Ang):
   XX=            -30.4001   YY=            -35.9005   ZZ=            -30.9346
   XY=             -1.1969   XZ=              0.1239   YZ=              0.0336
 Traceless Quadrupole moment (field-independent basis, Debye-Ang):
   XX=              2.0117   YY=             -3.4888   ZZ=              1.4771
   XY=             -1.1969   XZ=              0.1239   YZ=              0.0336
 Octapole moment (field-independent basis, Debye-Ang**2):
  XXX=              4.9847  YYY=             -3.0037  ZZZ=              0.3018  XYY=             -1.3392
  XXY=              0.7534  XXZ=             -0.0865  XZZ=              1.0149  YZZ=              0.6562
  YYZ=             -0.2584  XYZ=             -0.1701
 Hexadecapole moment (field-independent basis, Debye-Ang**3):
 XXXX=           -451.7248 YYYY=           -173.2977 ZZZZ=            -52.6043 XXXY=              6.2538
 XXXZ=              0.0292 YYYX=             -1.3341 YYYZ=              0.2454 ZZZX=              0.8874
 ZZZY=             -0.0712 XXYY=           -102.5279 XXZZ=            -84.3322 YYZZ=            -33.4545
 XXYZ=             -0.4916 YYXZ=             -0.2291 ZZXY=             -1.6861
 N-N= 1.758047652698D+02 E-N=-8.937223739725D+02  KE= 2.316085915184D+02
 Calling FoFJK, ICntrl=      2127 FMM=F ISym2X=0 I1Cent= 0 IOpClX= 0 NMat=1 NMatS=1 NMatT=0.
 ***** Axes restored to original set *****
 -------------------------------------------------------------------
 Center     Atomic                   Forces (Hartrees/Bohr)
 Number     Number              X              Y              Z
 -------------------------------------------------------------------
      1        6           0.001044445    0.000490533   -0.000023863
      2        6          -0.000010700   -0.002056492    0.000014615
      3        6          -0.000556186   -0.000174490    0.000042496
      4        6          -0.001269908    0.000404620    0.000092274
      5        8           0.000633109   -0.001759804    0.000011686
      6        1          -0.001227637   -0.000997333    0.000218766
      7        1          -0.000996300    0.000834449   -0.001445763
      8        1          -0.000925900    0.001465992    0.001084522
      9        1           0.001695308    0.000815271    0.000050859
     10        1           0.000392928   -0.000972129   -0.001368366
     11        1           0.000360364   -0.001192269    0.001107290
     12        1           0.000497223    0.001440495    0.001373929
     13        1           0.000363254    0.001701157   -0.001158445
 -------------------------------------------------------------------
 Cartesian Forces:  Max     0.002056492 RMS     0.001007227

 GradGradGradGradGradGradGradGradGradGradGradGradGradGradGradGradGradGrad
 Berny optimization.
 FormGI is forming the generalized inverse of G from B-inverse, IUseBI=4.
 Internal  Forces:  Max     0.002686883 RMS     0.000994085
 Search for a local minimum.
 Step number   1 out of a maximum of   64
 All quantities printed in internal units (Hartrees-Bohrs-Radians)
 Mixed Optimization -- En-DIIS/RFO-DIIS
 Second derivative matrix not updated -- first step.
 ITU=  0
     Eigenvalues ---    0.00436   0.00440   0.00476   0.00512   0.03854
     Eigenvalues ---    0.05225   0.05548   0.05580   0.07065   0.07336
     Eigenvalues ---    0.09700   0.13011   0.16000   0.16000   0.16000
     Eigenvalues ---    0.16000   0.16000   0.16000   0.21880   0.24999
     Eigenvalues ---    0.25000   0.29895   0.29922   0.30442   0.33841
     Eigenvalues ---    0.33921   0.34179   0.34367   0.34489   0.34587
     Eigenvalues ---    0.34664   0.34877   1.00081
 RFO step:  Lambda=-1.87576580D-04 EMin= 4.35887765D-03
 Linear search not attempted -- first point.
 Iteration  1 RMS(Cart)=  0.00896594 RMS(Int)=  0.00002982
 Iteration  2 RMS(Cart)=  0.00003107 RMS(Int)=  0.00001017
 Iteration  3 RMS(Cart)=  0.00000000 RMS(Int)=  0.00001017
 Variable       Old X    -DE/DX   Delta X   Delta X   Delta X     New X
                                 (Linear)    (Quad)   (Total)
    R1        2.87090  -0.00269   0.00000  -0.00882  -0.00882   2.86208
    R2        2.05875  -0.00159   0.00000  -0.00456  -0.00456   2.05419
    R3        2.07029  -0.00179   0.00000  -0.00522  -0.00522   2.06506
    R4        2.06715  -0.00187   0.00000  -0.00545  -0.00545   2.06170
    R5        2.88118  -0.00241   0.00000  -0.00804  -0.00804   2.87314
    R6        2.28606  -0.00181   0.00000  -0.00181  -0.00181   2.28425
    R7        2.88174  -0.00149   0.00000  -0.00499  -0.00499   2.87675
    R8        2.07600  -0.00190   0.00000  -0.00562  -0.00562   2.07038
    R9        2.07464  -0.00196   0.00000  -0.00577  -0.00577   2.06887
   R10        2.06513  -0.00182   0.00000  -0.00528  -0.00528   2.05985
   R11        2.06351  -0.00170   0.00000  -0.00490  -0.00490   2.05861
   R12        2.06224  -0.00165   0.00000  -0.00475  -0.00475   2.05749
    A1        1.91791   0.00031   0.00000   0.00292   0.00292   1.92083
    A2        1.91477  -0.00093   0.00000  -0.00623  -0.00625   1.90852
    A3        1.94933  -0.00106   0.00000  -0.00720  -0.00721   1.94212
    A4        1.89746   0.00052   0.00000   0.00441   0.00442   1.90188
    A5        1.91793   0.00052   0.00000   0.00397   0.00397   1.92190
    A6        1.86513   0.00069   0.00000   0.00235   0.00231   1.86744
    A7        2.03104  -0.00013   0.00000  -0.00052  -0.00052   2.03051
    A8        2.12318  -0.00047   0.00000  -0.00188  -0.00188   2.12130
    A9        2.12895   0.00060   0.00000   0.00240   0.00240   2.13135
   A10        1.98746   0.00150   0.00000   0.00620   0.00620   1.99367
   A11        1.87477  -0.00094   0.00000  -0.00690  -0.00691   1.86786
   A12        1.88968  -0.00093   0.00000  -0.00693  -0.00694   1.88274
   A13        1.93460  -0.00004   0.00000   0.00210   0.00211   1.93672
   A14        1.94211  -0.00010   0.00000   0.00160   0.00161   1.94372
   A15        1.82693   0.00037   0.00000   0.00326   0.00323   1.83016
   A16        1.93494  -0.00057   0.00000  -0.00392  -0.00392   1.93102
   A17        1.94018  -0.00026   0.00000  -0.00145  -0.00146   1.93873
   A18        1.93841  -0.00016   0.00000  -0.00081  -0.00082   1.93760
   A19        1.88829   0.00040   0.00000   0.00212   0.00212   1.89041
   A20        1.89073   0.00036   0.00000   0.00195   0.00195   1.89268
   A21        1.86892   0.00029   0.00000   0.00248   0.00248   1.87141
    D1        2.95173  -0.00002   0.00000   0.00257   0.00257   2.95429
    D2       -0.19640  -0.00001   0.00000   0.00323   0.00323  -0.19317
    D3       -1.24621   0.00023   0.00000   0.00594   0.00592  -1.24029
    D4        1.88885   0.00024   0.00000   0.00660   0.00658   1.89543
    D5        0.81853  -0.00017   0.00000   0.00037   0.00038   0.81891
    D6       -2.32960  -0.00017   0.00000   0.00103   0.00104  -2.32856
    D7        3.04255   0.00001   0.00000   0.00377   0.00377   3.04632
    D8       -1.09147   0.00026   0.00000   0.00551   0.00549  -1.08597
    D9        0.87257  -0.00021   0.00000   0.00261   0.00263   0.87519
   D10       -0.09248   0.00001   0.00000   0.00312   0.00312  -0.08936
   D11        2.05669   0.00026   0.00000   0.00487   0.00485   2.06153
   D12       -2.26247  -0.00021   0.00000   0.00197   0.00198  -2.26049
   D13        3.12094   0.00002   0.00000   0.00270   0.00270   3.12364
   D14       -1.06112  -0.00004   0.00000   0.00178   0.00178  -1.05934
   D15        1.01791   0.00006   0.00000   0.00341   0.00341   1.02132
   D16        1.00475   0.00020   0.00000   0.00571   0.00571   1.01045
   D17        3.10588   0.00015   0.00000   0.00479   0.00479   3.11066
   D18       -1.09828   0.00024   0.00000   0.00642   0.00642  -1.09187
   D19       -1.02072  -0.00017   0.00000  -0.00061  -0.00060  -1.02133
   D20        1.08041  -0.00022   0.00000  -0.00153  -0.00152   1.07889
   D21       -3.12375  -0.00013   0.00000   0.00011   0.00011  -3.12364
         Item               Value     Threshold  Converged?
 Maximum Force            0.002687     0.000450     NO 
 RMS     Force            0.000994     0.000300     NO 
 Maximum Displacement     0.028688     0.001800     NO 
 RMS     Displacement     0.008968     0.001200     NO 
 Predicted change in Energy=-9.383175D-05
 GradGradGradGradGradGradGradGradGradGradGradGradGradGradGradGradGradGrad

                          Input orientation:                          
 ---------------------------------------------------------------------
 Center     Atomic      Atomic             Coordinates (Angstroms)
 Number     Number       Type             X           Y           Z
 ---------------------------------------------------------------------
      1          6           0        1.883545   -0.505034    0.027664
      2          6           0        0.528911    0.170964   -0.015359
      3          6           0       -0.682463   -0.747229   -0.048744
      4          6           0       -2.018263   -0.022617    0.040757
      5          8           0        0.422851    1.375077   -0.016518
      6          1           0        2.670356    0.225720   -0.141324
      7          1           0        2.028759   -0.962812    1.009261
      8          1           0        1.950097   -1.305584   -0.710562
      9          1           0       -2.844263   -0.732300   -0.006455
     10          1           0       -2.099514    0.535675    0.972654
     11          1           0       -2.130556    0.691286   -0.773596
     12          1           0       -0.615412   -1.333148   -0.972073
     13          1           0       -0.571212   -1.479694    0.757298
 ---------------------------------------------------------------------
                    Distance matrix (angstroms):
                    1          2          3          4          5
     1  C    0.000000
     2  C    1.514548   0.000000
     3  C    2.578545   1.520401   0.000000
     4  C    3.931540   2.555136   1.522312   0.000000
     5  O    2.381259   1.208775   2.393102   2.813515   0.000000
     6  H    1.087029   2.145846   3.492363   4.698721   2.527425
     7  H    1.092785   2.141223   2.918317   4.266187   3.016104
     8  H    1.091002   2.164086   2.771306   4.237731   3.162296
     9  H    4.733390   3.492029   2.162265   1.090024   3.887823
    10  H    4.223842   2.831573   2.167286   1.089369   2.836438
    11  H    4.264529   2.813969   2.166035   1.088778   2.749659
    12  H    2.816031   2.118285   1.095598   2.170555   3.053778
    13  H    2.740102   2.128836   1.094800   2.174963   3.120364
                    6          7          8          9         10
     6  H    0.000000
     7  H    1.774289   0.000000
     8  H    1.785412   1.755412   0.000000
     9  H    5.598840   4.983087   4.879580   0.000000
    10  H    4.908023   4.391975   4.756343   1.766654   0.000000
    11  H    4.864697   4.818144   4.543478   1.767619   1.753444
    12  H    3.730481   3.324827   2.578950   2.502241   3.078477
    13  H    3.771435   2.662800   2.922657   2.511708   2.538464
                   11         12         13
    11  H    0.000000
    12  H    2.536412   0.000000
    13  H    3.080316   1.736131   0.000000
 Stoichiometry    C4H8O
 Framework group  C1[X(C4H8O)]
 Deg. of freedom    33
 Full point group                 C1      NOp   1
 Largest Abelian subgroup         C1      NOp   1
 Largest concise Abelian subgroup C1      NOp   1
                         Standard orientation:                         
 ---------------------------------------------------------------------
 Center     Atomic      Atomic             Coordinates (Angstroms)
 Number     Number       Type             X           Y           Z
 ---------------------------------------------------------------------
      1          6           0        1.881833   -0.507913    0.027685
      2          6           0        0.528103    0.169842   -0.016168
      3          6           0       -0.684483   -0.746774   -0.048862
      4          6           0       -2.019334   -0.020307    0.039765
      5          8           0        0.423641    1.374092   -0.018475
      6          1           0        2.669637    0.221638   -0.141878
      7          1           0        2.026300   -0.964958    1.009733
      8          1           0        1.947427   -1.309244   -0.709777
      9          1           0       -2.846267   -0.728937   -0.006897
     10          1           0       -2.099976    0.538970    0.971124
     11          1           0       -2.130563    0.692978   -0.775276
     12          1           0       -0.618079   -1.333651   -0.971630
     13          1           0       -0.574319   -1.478627    0.757884
 ---------------------------------------------------------------------
 Rotational constants (GHZ):           9.5839976           3.5826563           2.7409654
 Basis read from rwf:  (5D, 7F)
 There are   295 symmetry adapted cartesian basis functions of A   symmetry.
 There are   262 symmetry adapted basis functions of A   symmetry.
   262 basis functions,   399 primitive gaussians,   295 cartesian basis functions
    20 alpha electrons       20 beta electrons
       nuclear repulsion energy       176.1540575428 Hartrees.
 NAtoms=   13 NActive=   13 NUniq=   13 SFac= 1.00D+00 NAtFMM=   60 NAOKFM=F Big=F
 Integral buffers will be    131072 words long.
 Raffenetti 2 integral format.
 Two-electron integral symmetry is turned on.
 One-electron integrals computed using PRISM.
 NBasis=   262 RedAO= T EigKep=  2.79D-04  NBF=   262
 NBsUse=   262 1.00D-06 EigRej= -1.00D+00 NBFU=   262
 Initial guess from the checkpoint file:  "/wrk/irikura/Gau-261306.chk"
 B after Tr=    -0.000000   -0.000000   -0.000000
         Rot=    1.000000    0.000037    0.000093    0.000962 Ang=   0.11 deg.
 ExpMin= 7.42D-02 ExpMax= 1.36D+04 ExpMxC= 4.64D+02 IAcc=3 IRadAn=         5 AccDes= 0.00D+00
 Harris functional with IExCor=  402 and IRadAn=       5 diagonalized for initial guess.
 HarFok:  IExCor=  402 AccDes= 0.00D+00 IRadAn=         5 IDoV= 1 UseB2=F ITyADJ=14
 ICtDFT=  3500011 ScaDFX=  1.000000  1.000000  1.000000  1.000000
 FoFCou: FMM=F IPFlag=           0 FMFlag=      100000 FMFlg1=           0
         NFxFlg=           0 DoJE=T BraDBF=F KetDBF=T FulRan=T
         wScrn=  0.000000 ICntrl=       500 IOpCl=  0 I1Cent=   200000004 NGrid=           0
         NMat0=    1 NMatS0=      1 NMatT0=    0 NMatD0=    1 NMtDS0=    0 NMtDT0=    0
 Petite list used in FoFCou.
 Requested convergence on RMS density matrix=1.00D-08 within 128 cycles.
 Requested convergence on MAX density matrix=1.00D-06.
 Requested convergence on             energy=1.00D-06.
 No special actions if energy rises.
 Integral accuracy reduced to 1.0D-05 until final iterations.
 Initial convergence to 1.0D-05 achieved.  Increase integral accuracy.
 SCF Done:  E(RB3LYP) =  -232.569499373     A.U. after    9 cycles
            NFock=  9  Conv=0.72D-08     -V/T= 2.0039
 Calling FoFJK, ICntrl=      2127 FMM=F ISym2X=0 I1Cent= 0 IOpClX= 0 NMat=1 NMatS=1 NMatT=0.
 ***** Axes restored to original set *****
 -------------------------------------------------------------------
 Center     Atomic                   Forces (Hartrees/Bohr)
 Number     Number              X              Y              Z
 -------------------------------------------------------------------
      1        6           0.000370554    0.000006956    0.000002404
      2        6           0.000022523   -0.000737390   -0.000093361
      3        6          -0.000050713    0.000201164    0.000041767
      4        6          -0.000187858   -0.000015485    0.000040161
      5        8          -0.000160465    0.000792019    0.000018536
      6        1          -0.000147533   -0.000101022    0.000024600
      7        1          -0.000059106   -0.000062357   -0.000014115
      8        1          -0.000023880   -0.000031439    0.000002435
      9        1           0.000075966   -0.000017414   -0.000003097
     10        1           0.000045733   -0.000021327   -0.000034205
     11        1           0.000018015   -0.000030338   -0.000001915
     12        1           0.000069556    0.000015099   -0.000014639
     13        1           0.000027209    0.000001534    0.000031429
 -------------------------------------------------------------------
 Cartesian Forces:  Max     0.000792019 RMS     0.000195161

 GradGradGradGradGradGradGradGradGradGradGradGradGradGradGradGradGradGrad
 Berny optimization.
 Using GEDIIS/GDIIS optimizer.
 FormGI is forming the generalized inverse of G from B-inverse, IUseBI=4.
 Internal  Forces:  Max     0.000803007 RMS     0.000132717
 Search for a local minimum.
 Step number   2 out of a maximum of   64
 All quantities printed in internal units (Hartrees-Bohrs-Radians)
 Mixed Optimization -- En-DIIS/RFO-DIIS
 Swapping is turned off.
 Update second derivatives using D2CorX and points    1    2
 DE= -9.61D-05 DEPred=-9.38D-05 R= 1.02D+00
 TightC=F SS=  1.41D+00  RLast= 3.21D-02 DXNew= 5.0454D-01 9.6212D-02
 Trust test= 1.02D+00 RLast= 3.21D-02 DXMaxT set to 3.00D-01
 ITU=  1  0
     Eigenvalues ---    0.00435   0.00439   0.00476   0.00510   0.03829
     Eigenvalues ---    0.05215   0.05580   0.05590   0.07089   0.07339
     Eigenvalues ---    0.09675   0.13040   0.15762   0.16000   0.16000
     Eigenvalues ---    0.16000   0.16000   0.16040   0.21211   0.24937
     Eigenvalues ---    0.25108   0.29747   0.29907   0.31111   0.33860
     Eigenvalues ---    0.34014   0.34207   0.34306   0.34464   0.34547
     Eigenvalues ---    0.34641   0.35028   1.02197
 En-DIIS/RFO-DIIS/Sim-DIIS IScMMF=       -3 using points:     2    1
 RFO step:  Lambda=-2.98111994D-06.
 DidBck=F Rises=F RFO-DIIS coefs:    1.17191   -0.17191
 Iteration  1 RMS(Cart)=  0.00278935 RMS(Int)=  0.00000565
 Iteration  2 RMS(Cart)=  0.00000585 RMS(Int)=  0.00000211
 Iteration  3 RMS(Cart)=  0.00000000 RMS(Int)=  0.00000211
 Variable       Old X    -DE/DX   Delta X   Delta X   Delta X     New X
                                 (Linear)    (Quad)   (Total)
    R1        2.86208   0.00021  -0.00152   0.00208   0.00057   2.86265
    R2        2.05419  -0.00018  -0.00078   0.00019  -0.00059   2.05359
    R3        2.06506   0.00001  -0.00090   0.00083  -0.00006   2.06500
    R4        2.06170   0.00002  -0.00094   0.00091  -0.00002   2.06167
    R5        2.87314  -0.00008  -0.00138   0.00098  -0.00040   2.87274
    R6        2.28425   0.00080  -0.00031   0.00110   0.00079   2.28505
    R7        2.87675   0.00000  -0.00086   0.00079  -0.00007   2.87668
    R8        2.07038   0.00001  -0.00097   0.00091  -0.00006   2.07032
    R9        2.06887   0.00002  -0.00099   0.00098  -0.00001   2.06886
   R10        2.05985  -0.00005  -0.00091   0.00069  -0.00022   2.05963
   R11        2.05861  -0.00004  -0.00084   0.00064  -0.00020   2.05841
   R12        2.05749  -0.00002  -0.00082   0.00068  -0.00013   2.05736
    A1        1.92083  -0.00001   0.00050  -0.00036   0.00014   1.92097
    A2        1.90852  -0.00004  -0.00107   0.00068  -0.00040   1.90812
    A3        1.94212  -0.00002  -0.00124   0.00089  -0.00036   1.94176
    A4        1.90188   0.00006   0.00076  -0.00013   0.00063   1.90251
    A5        1.92190   0.00003   0.00068  -0.00032   0.00036   1.92226
    A6        1.86744  -0.00002   0.00040  -0.00076  -0.00037   1.86707
    A7        2.03051  -0.00017  -0.00009  -0.00063  -0.00072   2.02979
    A8        2.12130   0.00019  -0.00032   0.00106   0.00073   2.12203
    A9        2.13135  -0.00002   0.00041  -0.00045  -0.00004   2.13131
   A10        1.99367   0.00028   0.00107   0.00041   0.00147   1.99514
   A11        1.86786  -0.00014  -0.00119   0.00033  -0.00086   1.86700
   A12        1.88274  -0.00012  -0.00119   0.00041  -0.00079   1.88196
   A13        1.93672  -0.00003   0.00036  -0.00017   0.00019   1.93691
   A14        1.94372  -0.00006   0.00028  -0.00044  -0.00016   1.94356
   A15        1.83016   0.00004   0.00056  -0.00057  -0.00002   1.83013
   A16        1.93102  -0.00008  -0.00067   0.00009  -0.00058   1.93044
   A17        1.93873  -0.00003  -0.00025   0.00004  -0.00021   1.93851
   A18        1.93760  -0.00001  -0.00014   0.00005  -0.00009   1.93751
   A19        1.89041   0.00006   0.00036   0.00003   0.00040   1.89081
   A20        1.89268   0.00004   0.00033  -0.00010   0.00024   1.89291
   A21        1.87141   0.00003   0.00043  -0.00013   0.00030   1.87171
    D1        2.95429   0.00002   0.00044   0.00540   0.00584   2.96013
    D2       -0.19317  -0.00000   0.00055   0.00020   0.00076  -0.19242
    D3       -1.24029   0.00006   0.00102   0.00543   0.00645  -1.23384
    D4        1.89543   0.00004   0.00113   0.00024   0.00137   1.89680
    D5        0.81891   0.00000   0.00007   0.00546   0.00553   0.82444
    D6       -2.32856  -0.00002   0.00018   0.00026   0.00044  -2.32811
    D7        3.04632  -0.00001   0.00065  -0.00153  -0.00088   3.04544
    D8       -1.08597   0.00004   0.00094  -0.00124  -0.00029  -1.08626
    D9        0.87519  -0.00004   0.00045  -0.00155  -0.00109   0.87410
   D10       -0.08936   0.00001   0.00054   0.00370   0.00423  -0.08513
   D11        2.06153   0.00006   0.00083   0.00398   0.00481   2.06635
   D12       -2.26049  -0.00001   0.00034   0.00367   0.00402  -2.25647
   D13        3.12364   0.00000   0.00046   0.00113   0.00159   3.12523
   D14       -1.05934   0.00000   0.00031   0.00125   0.00156  -1.05778
   D15        1.02132   0.00001   0.00059   0.00116   0.00174   1.02306
   D16        1.01045   0.00000   0.00098   0.00054   0.00152   1.01197
   D17        3.11066  -0.00000   0.00082   0.00066   0.00149   3.11215
   D18       -1.09187   0.00001   0.00110   0.00056   0.00167  -1.09020
   D19       -1.02133   0.00001  -0.00010   0.00163   0.00152  -1.01980
   D20        1.07889   0.00001  -0.00026   0.00175   0.00149   1.08038
   D21       -3.12364   0.00002   0.00002   0.00166   0.00167  -3.12197
         Item               Value     Threshold  Converged?
 Maximum Force            0.000803     0.000450     NO 
 RMS     Force            0.000133     0.000300     YES
 Maximum Displacement     0.007805     0.001800     NO 
 RMS     Displacement     0.002790     0.001200     NO 
 Predicted change in Energy=-1.490611D-06
 GradGradGradGradGradGradGradGradGradGradGradGradGradGradGradGradGradGrad

                          Input orientation:                          
 ---------------------------------------------------------------------
 Center     Atomic      Atomic             Coordinates (Angstroms)
 Number     Number       Type             X           Y           Z
 ---------------------------------------------------------------------
      1          6           0        1.883569   -0.505480    0.027181
      2          6           0        0.529334    0.171909   -0.017094
      3          6           0       -0.682120   -0.745897   -0.048565
      4          6           0       -2.018728   -0.022822    0.040686
      5          8           0        0.423376    1.376451   -0.015414
      6          1           0        2.671283    0.224848   -0.137366
      7          1           0        2.025252   -0.966942    1.007531
      8          1           0        1.950868   -1.303803   -0.713366
      9          1           0       -2.843348   -0.734115   -0.003659
     10          1           0       -2.099345    0.537676    0.971188
     11          1           0       -2.132945    0.688595   -0.775478
     12          1           0       -0.614647   -1.332996   -0.971076
     13          1           0       -0.569713   -1.477121    0.758434
 ---------------------------------------------------------------------
                    Distance matrix (angstroms):
                    1          2          3          4          5
     1  C    0.000000
     2  C    1.514849   0.000000
     3  C    2.578041   1.520191   0.000000
     4  C    3.932055   2.556145   1.522276   0.000000
     5  O    2.382360   1.209194   2.393237   2.815135   0.000000
     6  H    1.086715   2.145976   3.492212   4.699920   2.528665
     7  H    1.092752   2.141170   2.914458   4.263792   3.017269
     8  H    1.090990   2.164088   2.772336   4.238773   3.162930
     9  H    4.732543   3.492283   2.161726   1.089909   3.889230
    10  H    4.224089   2.832038   2.167021   1.089261   2.835675
    11  H    4.266434   2.815997   2.165886   1.088707   2.754201
    12  H    2.814672   2.117430   1.095566   2.170636   3.054813
    13  H    2.738139   2.128062   1.094792   2.174808   3.118964
                    6          7          8          9         10
     6  H    0.000000
     7  H    1.774403   0.000000
     8  H    1.785370   1.755133   0.000000
     9  H    5.598985   4.977949   4.879829   0.000000
    10  H    4.907713   4.390615   4.757414   1.766725   0.000000
    11  H    4.868558   4.817731   4.544341   1.767620   1.753496
    12  H    3.730855   3.319329   2.578591   2.502331   3.078332
    13  H    3.768715   2.656346   2.923963   2.510430   2.538591
                   11         12         13
    11  H    0.000000
    12  H    2.535807   0.000000
    13  H    3.080082   1.736086   0.000000
 Stoichiometry    C4H8O
 Framework group  C1[X(C4H8O)]
 Deg. of freedom    33
 Full point group                 C1      NOp   1
 Largest Abelian subgroup         C1      NOp   1
 Largest concise Abelian subgroup C1      NOp   1
                         Standard orientation:                         
 ---------------------------------------------------------------------
 Center     Atomic      Atomic             Coordinates (Angstroms)
 Number     Number       Type             X           Y           Z
 ---------------------------------------------------------------------
      1          6           0        1.881726   -0.508768    0.027717
      2          6           0        0.528395    0.170340   -0.017839
      3          6           0       -0.684257   -0.745915   -0.048385
      4          6           0       -2.019936   -0.020962    0.039527
      5          8           0        0.424020    1.375021   -0.017826
      6          1           0        2.670443    0.220299   -0.137614
      7          1           0        2.022543   -0.969082    1.008730
      8          1           0        1.948170   -1.308185   -0.711727
      9          1           0       -2.845479   -0.731230   -0.004071
     10          1           0       -2.100063    0.540906    0.969245
     11          1           0       -2.133002    0.689494   -0.777634
     12          1           0       -0.617312   -1.334355   -0.970079
     13          1           0       -0.573025   -1.476188    0.759636
 ---------------------------------------------------------------------
 Rotational constants (GHZ):           9.5774776           3.5820438           2.7400354
 Basis read from rwf:  (5D, 7F)
 There are   295 symmetry adapted cartesian basis functions of A   symmetry.
 There are   262 symmetry adapted basis functions of A   symmetry.
   262 basis functions,   399 primitive gaussians,   295 cartesian basis functions
    20 alpha electrons       20 beta electrons
       nuclear repulsion energy       176.1352274378 Hartrees.
 NAtoms=   13 NActive=   13 NUniq=   13 SFac= 1.00D+00 NAtFMM=   60 NAOKFM=F Big=F
 Integral buffers will be    131072 words long.
 Raffenetti 2 integral format.
 Two-electron integral symmetry is turned on.
 One-electron integrals computed using PRISM.
 NBasis=   262 RedAO= T EigKep=  2.79D-04  NBF=   262
 NBsUse=   262 1.00D-06 EigRej= -1.00D+00 NBFU=   262
 Initial guess from the checkpoint file:  "/wrk/irikura/Gau-261306.chk"
 B after Tr=    -0.000000    0.000000    0.000000
         Rot=    1.000000    0.000051    0.000030    0.000013 Ang=   0.01 deg.
 Requested convergence on RMS density matrix=1.00D-08 within 128 cycles.
 Requested convergence on MAX density matrix=1.00D-06.
 Requested convergence on             energy=1.00D-06.
 No special actions if energy rises.
 SCF Done:  E(RB3LYP) =  -232.569500135     A.U. after    7 cycles
            NFock=  7  Conv=0.51D-08     -V/T= 2.0039
 Calling FoFJK, ICntrl=      2127 FMM=F ISym2X=0 I1Cent= 0 IOpClX= 0 NMat=1 NMatS=1 NMatT=0.
 ***** Axes restored to original set *****
 -------------------------------------------------------------------
 Center     Atomic                   Forces (Hartrees/Bohr)
 Number     Number              X              Y              Z
 -------------------------------------------------------------------
      1        6           0.000059787    0.000028041   -0.000151206
      2        6          -0.000081876   -0.000130680    0.000598577
      3        6           0.000034256    0.000079120   -0.000189356
      4        6           0.000001869   -0.000006753    0.000011616
      5        8           0.000015913    0.000128714   -0.000212222
      6        1           0.000011618    0.000006956   -0.000012412
      7        1          -0.000047696   -0.000018271    0.000006027
      8        1           0.000016106   -0.000020374   -0.000033973
      9        1          -0.000003728   -0.000024400   -0.000004648
     10        1           0.000012809    0.000016956    0.000010284
     11        1          -0.000013692    0.000015605   -0.000025928
     12        1          -0.000026257   -0.000063511   -0.000027035
     13        1           0.000020891   -0.000011402    0.000030276
 -------------------------------------------------------------------
 Cartesian Forces:  Max     0.000598577 RMS     0.000116429

 GradGradGradGradGradGradGradGradGradGradGradGradGradGradGradGradGradGrad
 Berny optimization.
 Using GEDIIS/GDIIS optimizer.
 FormGI is forming the generalized inverse of G from B-inverse, IUseBI=4.
 Internal  Forces:  Max     0.000126515 RMS     0.000042162
 Search for a local minimum.
 Step number   3 out of a maximum of   64
 All quantities printed in internal units (Hartrees-Bohrs-Radians)
 Mixed Optimization -- En-DIIS/RFO-DIIS
 Swapping is turned off.
 Update second derivatives using D2CorX and points    1    2    3
 DE= -7.62D-07 DEPred=-1.49D-06 R= 5.11D-01
 TightC=F SS=  1.41D+00  RLast= 1.41D-02 DXNew= 5.0454D-01 4.2284D-02
 Trust test= 5.11D-01 RLast= 1.41D-02 DXMaxT set to 3.00D-01
 ITU=  1  1  0
     Eigenvalues ---    0.00296   0.00438   0.00469   0.01494   0.03802
     Eigenvalues ---    0.05197   0.05579   0.05588   0.06970   0.07184
     Eigenvalues ---    0.09575   0.13142   0.14509   0.16000   0.16000
     Eigenvalues ---    0.16000   0.16037   0.16134   0.19829   0.24635
     Eigenvalues ---    0.25213   0.29412   0.29908   0.30950   0.33876
     Eigenvalues ---    0.33981   0.34209   0.34311   0.34538   0.34575
     Eigenvalues ---    0.34676   0.35095   0.93567
 En-DIIS/RFO-DIIS/Sim-DIIS IScMMF=       -3 using points:     3    2    1
 RFO step:  Lambda=-5.66072839D-06.
 DidBck=T Rises=F RFO-DIIS coefs:    0.58644    0.71020   -0.29665
 Iteration  1 RMS(Cart)=  0.00087114 RMS(Int)=  0.00000372
 Iteration  2 RMS(Cart)=  0.00000098 RMS(Int)=  0.00000369
 Variable       Old X    -DE/DX   Delta X   Delta X   Delta X     New X
                                 (Linear)    (Quad)   (Total)
    R1        2.86265   0.00003  -0.00285   0.00291   0.00006   2.86271
    R2        2.05359   0.00001  -0.00111   0.00106  -0.00005   2.05354
    R3        2.06500   0.00001  -0.00152   0.00152  -0.00001   2.06499
    R4        2.06167   0.00004  -0.00161   0.00162   0.00001   2.06168
    R5        2.87274  -0.00002  -0.00222   0.00217  -0.00005   2.87269
    R6        2.28505   0.00013  -0.00086   0.00095   0.00009   2.28513
    R7        2.87668   0.00000  -0.00145   0.00144  -0.00001   2.87668
    R8        2.07032   0.00006  -0.00164   0.00165   0.00001   2.07033
    R9        2.06886   0.00003  -0.00171   0.00171   0.00001   2.06886
   R10        2.05963   0.00002  -0.00148   0.00146  -0.00002   2.05961
   R11        2.05841   0.00002  -0.00137   0.00136  -0.00002   2.05839
   R12        2.05736   0.00003  -0.00135   0.00135  -0.00000   2.05736
    A1        1.92097   0.00001   0.00081  -0.00078   0.00003   1.92100
    A2        1.90812  -0.00006  -0.00169   0.00160  -0.00009   1.90803
    A3        1.94176   0.00002  -0.00199   0.00197  -0.00003   1.94173
    A4        1.90251   0.00003   0.00105  -0.00095   0.00010   1.90261
    A5        1.92226  -0.00001   0.00103  -0.00100   0.00003   1.92229
    A6        1.86707   0.00001   0.00084  -0.00086  -0.00004   1.86703
    A7        2.02979  -0.00001   0.00015  -0.00021  -0.00006   2.02973
    A8        2.12203  -0.00002  -0.00086   0.00092   0.00006   2.12210
    A9        2.13131   0.00003   0.00073  -0.00071   0.00003   2.13133
   A10        1.99514   0.00001   0.00123  -0.00109   0.00015   1.99529
   A11        1.86700   0.00004  -0.00169   0.00169  -0.00000   1.86699
   A12        1.88196  -0.00004  -0.00173   0.00160  -0.00014   1.88182
   A13        1.93691  -0.00003   0.00055  -0.00053   0.00002   1.93693
   A14        1.94356   0.00001   0.00055  -0.00057  -0.00002   1.94354
   A15        1.83013  -0.00001   0.00097  -0.00098  -0.00002   1.83011
   A16        1.93044  -0.00002  -0.00092   0.00085  -0.00008   1.93036
   A17        1.93851  -0.00001  -0.00034   0.00032  -0.00003   1.93849
   A18        1.93751   0.00002  -0.00021   0.00021   0.00000   1.93751
   A19        1.89081   0.00002   0.00047  -0.00041   0.00005   1.89086
   A20        1.89291   0.00000   0.00048  -0.00046   0.00002   1.89293
   A21        1.87171  -0.00000   0.00061  -0.00058   0.00003   1.87174
    D1        2.96013  -0.00006  -0.00165   0.00056  -0.00110   2.95904
    D2       -0.19242   0.00008   0.00064   0.00169   0.00234  -0.19008
    D3       -1.23384  -0.00004  -0.00091  -0.00009  -0.00101  -1.23485
    D4        1.89680   0.00009   0.00139   0.00104   0.00242   1.89922
    D5        0.82444  -0.00006  -0.00217   0.00103  -0.00113   0.82330
    D6       -2.32811   0.00007   0.00013   0.00217   0.00230  -2.32581
    D7        3.04544   0.00008   0.00148   0.00066   0.00214   3.04758
    D8       -1.08626   0.00008   0.00175   0.00052   0.00226  -1.08400
    D9        0.87410   0.00008   0.00123   0.00093   0.00217   0.87627
   D10       -0.08513  -0.00006  -0.00082  -0.00049  -0.00131  -0.08644
   D11        2.06635  -0.00006  -0.00055  -0.00063  -0.00119   2.06516
   D12       -2.25647  -0.00006  -0.00107  -0.00022  -0.00128  -2.25775
   D13        3.12523   0.00003   0.00014   0.00020   0.00034   3.12557
   D14       -1.05778   0.00003  -0.00012   0.00045   0.00034  -1.05744
   D15        1.02306   0.00003   0.00029   0.00007   0.00036   1.02342
   D16        1.01197  -0.00002   0.00107  -0.00084   0.00022   1.01219
   D17        3.11215  -0.00001   0.00081  -0.00058   0.00022   3.11237
   D18       -1.09020  -0.00001   0.00121  -0.00097   0.00025  -1.08995
   D19       -1.01980  -0.00000  -0.00081   0.00106   0.00025  -1.01955
   D20        1.08038  -0.00000  -0.00107   0.00132   0.00025   1.08063
   D21       -3.12197   0.00000  -0.00066   0.00094   0.00027  -3.12170
         Item               Value     Threshold  Converged?
 Maximum Force            0.000127     0.000450     YES
 RMS     Force            0.000042     0.000300     YES
 Maximum Displacement     0.003131     0.001800     NO 
 RMS     Displacement     0.000871     0.001200     YES
 Predicted change in Energy=-1.176137D-06
 GradGradGradGradGradGradGradGradGradGradGradGradGradGradGradGradGradGrad

                          Input orientation:                          
 ---------------------------------------------------------------------
 Center     Atomic      Atomic             Coordinates (Angstroms)
 Number     Number       Type             X           Y           Z
 ---------------------------------------------------------------------
      1          6           0        1.883606   -0.505525    0.026960
      2          6           0        0.529351    0.172011   -0.015437
      3          6           0       -0.682081   -0.745747   -0.047846
      4          6           0       -2.018842   -0.022838    0.040380
      5          8           0        0.423484    1.376607   -0.015166
      6          1           0        2.671214    0.224821   -0.137839
      7          1           0        2.026124   -0.967763    1.006819
      8          1           0        1.950049   -1.303327   -0.714232
      9          1           0       -2.843273   -0.734317   -0.004279
     10          1           0       -2.100084    0.537895    0.970676
     11          1           0       -2.132671    0.688318   -0.776064
     12          1           0       -0.613847   -1.332925   -0.970258
     13          1           0       -0.570195   -1.476905    0.759289
 ---------------------------------------------------------------------
                    Distance matrix (angstroms):
                    1          2          3          4          5
     1  C    0.000000
     2  C    1.514880   0.000000
     3  C    2.577995   1.520164   0.000000
     4  C    3.932209   2.556241   1.522271   0.000000
     5  O    2.382468   1.209240   2.393267   2.815401   0.000000
     6  H    1.086688   2.146008   3.492090   4.699970   2.528626
     7  H    1.092748   2.141126   2.914787   4.264813   3.018109
     8  H    1.090994   2.164098   2.771836   4.238064   3.162458
     9  H    4.732516   3.492298   2.161660   1.089901   3.889449
    10  H    4.224821   2.831999   2.166992   1.089253   2.836145
    11  H    4.266216   2.816290   2.165884   1.088706   2.754385
    12  H    2.813594   2.117408   1.095572   2.170652   3.054476
    13  H    2.738800   2.127939   1.094796   2.174792   3.119248
[...]
 ! R5    R(2,3)                  1.5203         -DE/DX =    0.0                 !
 ! R6    R(2,5)                  1.2093         -DE/DX =    0.0                 !
 ! R7    R(3,4)                  1.5223         -DE/DX =    0.0                 !
 ! R8    R(3,12)                 1.0954         -DE/DX =    0.0                 !
 ! R9    R(3,13)                 1.095          -DE/DX =    0.0                 !
 ! R10   R(4,9)                  1.0899         -DE/DX =    0.0                 !
 ! R11   R(4,10)                 1.0892         -DE/DX =    0.0                 !
 ! R12   R(4,11)                 1.0889         -DE/DX =    0.0                 !
 ! A1    A(2,1,6)              110.0444         -DE/DX =    0.0                 !
 ! A2    A(2,1,7)              109.7857         -DE/DX =    0.0                 !
 ! A3    A(2,1,8)              110.8116         -DE/DX =    0.0                 !
 ! A4    A(6,1,7)              109.3214         -DE/DX =    0.0                 !
 ! A5    A(6,1,8)              109.916          -DE/DX =    0.0                 !
 ! A6    A(7,1,8)              106.9011         -DE/DX =    0.0                 !
 ! A7    A(1,2,3)              116.2996         -DE/DX =    0.0                 !
 ! A8    A(1,2,5)              121.6057         -DE/DX =    0.0                 !
 ! A9    A(3,2,5)              122.0944         -DE/DX =    0.0                 !
 ! A10   A(2,3,4)              114.3045         -DE/DX =    0.0                 !
 ! A11   A(2,3,12)             107.1966         -DE/DX =    0.0                 !
 ! A12   A(2,3,13)             107.6693         -DE/DX =    0.0                 !
 ! A13   A(4,3,12)             111.0398         -DE/DX =    0.0                 !
 ! A14   A(4,3,13)             111.2504         -DE/DX =    0.0                 !
 ! A15   A(12,3,13)            104.8513         -DE/DX =    0.0                 !
 ! A16   A(3,4,9)              110.5843         -DE/DX =    0.0                 !
 ! A17   A(3,4,10)             111.063          -DE/DX =    0.0                 !
 ! A18   A(3,4,11)             111.0359         -DE/DX =    0.0                 !
 ! A19   A(9,4,10)             108.3693         -DE/DX =    0.0                 !
 ! A20   A(9,4,11)             108.4302         -DE/DX =    0.0                 !
 ! A21   A(10,4,11)            107.2355         -DE/DX =    0.0                 !
 ! D1    D(6,1,2,3)            174.4851         -DE/DX =    0.0                 !
 ! D2    D(6,1,2,5)             -5.7163         -DE/DX =    0.0                 !
 ! D3    D(7,1,2,3)            -65.1472         -DE/DX =    0.0                 !
 ! D4    D(7,1,2,5)            114.6514         -DE/DX =    0.0                 !
 ! D5    D(8,1,2,3)             52.7095         -DE/DX =    0.0                 !
 ! D6    D(8,1,2,5)           -127.4919         -DE/DX =    0.0                 !
 ! D7    D(1,2,3,4)            176.979          -DE/DX =    0.0                 !
 ! D8    D(1,2,3,12)           -59.5075         -DE/DX =    0.0                 !
 ! D9    D(1,2,3,13)            52.8372         -DE/DX =    0.0                 !
 ! D10   D(5,2,3,4)             -2.8185         -DE/DX =    0.0                 !
 ! D11   D(5,2,3,12)           120.695          -DE/DX =    0.0                 !
 ! D12   D(5,2,3,13)          -126.9603         -DE/DX =    0.0                 !
 ! D13   D(2,3,4,9)            179.5626         -DE/DX =    0.0                 !
 ! D14   D(2,3,4,10)           -60.0812         -DE/DX =    0.0                 !
 ! D15   D(2,3,4,11)            59.1477         -DE/DX =    0.0                 !
 ! D16   D(12,3,4,9)            58.1435         -DE/DX =    0.0                 !
 ! D17   D(12,3,4,10)          178.4997         -DE/DX =    0.0                 !
 ! D18   D(12,3,4,11)          -62.2715         -DE/DX =    0.0                 !
 ! D19   D(13,3,4,9)           -58.2315         -DE/DX =    0.0                 !
 ! D20   D(13,3,4,10)           62.1247         -DE/DX =    0.0                 !
 ! D21   D(13,3,4,11)         -178.6465         -DE/DX =    0.0                 !
 --------------------------------------------------------------------------------
 GradGradGradGradGradGradGradGradGradGradGradGradGradGradGradGradGradGrad


 ----------------------------------------------------------------------

 Electric dipole moment (input orientation):
 (Debye = 10**-18 statcoulomb cm , SI units = C m)
                  (au)            (Debye)         (10**-30 SI)
   Tot        0.115867D+01      0.294505D+01      0.982363D+01
   x          0.662003D-01      0.168264D+00      0.561269D+00
   y         -0.115677D+01     -0.294022D+01     -0.980753D+01
   z          0.367720D-02      0.934652D-02      0.311766D-01

 Dipole polarizability, Alpha (input orientation).
 (esu units = cm**3 , SI units = C**2 m**2 J**-1)
 Alpha(0;0):
               (au)            (10**-24 esu)      (10**-40 SI)
   iso        0.523838D+02      0.776248D+01      0.863693D+01
   aniso      0.157280D+02      0.233065D+01      0.259320D+01
   xx         0.598905D+02      0.887486D+01      0.987461D+01
   yx        -0.147910D+01     -0.219179D+00     -0.243870D+00
   yy         0.547948D+02      0.811976D+01      0.903445D+01
   zx         0.872610D-01      0.129307D-01      0.143874D-01
   zy         0.181712D-01      0.269269D-02      0.299602D-02
   zz         0.424662D+02      0.629284D+01      0.700173D+01

 ----------------------------------------------------------------------

 Dipole orientation:
     6          3.49411902          0.22515831          1.15519769
     6          1.01605172          0.04924144         -0.26727786
     6         -1.36233490         -0.12200045          1.33522993
     6         -3.80892846         -0.15990153         -0.17756627
     8          0.94344723          0.05283731         -2.55131582
     1          5.06804894          0.15608706         -0.16185132
     1          3.56762378          1.99494044          2.21534700
     1          3.66030192         -1.30419448          2.52916621
     1         -5.43528006         -0.29619790          1.07892438
     1         -4.00511349          1.54775341         -1.30963643
     1         -3.85189811         -1.75823415         -1.47272280
     1         -1.18844910         -1.81756482          2.50981501
     1         -1.33266396          1.45573824          2.67368226

 Electric dipole moment (dipole orientation):
 (Debye = 10**-18 statcoulomb cm , SI units = C m)
                  (au)            (Debye)         (10**-30 SI)
   Tot        0.115867D+01      0.294505D+01      0.982363D+01
   x          0.000000D+00      0.000000D+00      0.000000D+00
   y          0.000000D+00      0.000000D+00      0.000000D+00
   z          0.115867D+01      0.294505D+01      0.982363D+01

 Dipole polarizability, Alpha (dipole orientation).
 (esu units = cm**3 , SI units = C**2 m**2 J**-1)
 Alpha(0;0):
               (au)            (10**-24 esu)      (10**-40 SI)
   iso        0.523838D+02      0.776248D+01      0.863693D+01
   aniso      0.157280D+02      0.233065D+01      0.259320D+01
   xx         0.596394D+02      0.883765D+01      0.983321D+01
   yx         0.106536D+01      0.157869D+00      0.175653D+00
   yy         0.425321D+02      0.630261D+01      0.701259D+01
   zx         0.176052D+01      0.260882D+00      0.290271D+00
   zy         0.477948D-01      0.708246D-02      0.788030D-02
   zz         0.549800D+02      0.814719D+01      0.906498D+01

 ----------------------------------------------------------------------
 1\1\GINC-GAMBA\Freq\RB3LYP\Gen\C4H8O1\IRIKURA\16-Sep-2023\0\\#N Geom=A
 llCheck Guess=TCheck SCRF=Check GenChk RB3LYP/ChkBas Freq\\2-butanone,
  B3LYP/pcseg-2\\0,1\C,1.8846928956,-0.5044012168,0.0152511448\C,0.5293
 224875,0.1719453646,-0.0051537588\C,-0.681871829,-0.7468221492,-0.0210
 223883\C,-2.0192192328,-0.0213417873,0.0303845752\O,0.4220787215,1.376
 4533501,-0.0048947254\H,2.6729721043,0.2385326046,-0.0710384812\H,2.00
 8767756,-1.0562574256,0.9498030229\H,1.9678708076,-1.230484277,-0.7954
 383777\H,-2.8431588354,-0.7345578809,0.0096596394\H,-2.105543308,0.576
 6476478,0.936586271\H,-2.1291346797,0.6561730614,-0.814906675\H,-0.605
 6603952,-1.3679024914,-0.9200909144\H,-0.5782814924,-1.4476808005,0.81
 38636675\\Version=ES64L-G16RevB.01\State=1-A\HF=-232.5695054\RMSD=2.06
 5e-09\RMSF=7.996e-06\ZeroPoint=0.1118389\Thermal=0.1185128\Dipole=0.06
 62003,-1.1567735,0.0036772\DipoleDeriv=-0.3570476,0.1876833,-0.0143759
 ,0.15955,-0.0773387,0.0119824,-0.03015,0.0248629,0.0767987,1.1291229,-
 0.0415944,0.0255973,-0.0032983,1.1569346,-0.0052214,0.0221907,-0.00492
 09,0.0970803,-0.1568407,-0.167022,-0.0096525,-0.207913,-0.122068,-0.00
 83607,-0.0164629,-0.0159245,0.1462946,0.0397298,0.0443036,0.0008947,0.
 000331,0.0776072,0.0014788,0.0011013,0.0048857,0.0784344,-0.6476438,0.
 0262689,-0.0038758,0.0334792,-1.0850117,0.0036409,-0.0028362,0.0012511
 ,-0.3111818,-0.0472845,-0.0321174,0.0066771,-0.0902894,-0.0049413,0.00
 9187,0.0145851,0.0048311,0.0817945,0.0469461,0.0110183,0.0300843,0.004
 8726,0.0479161,0.0633941,-0.0121319,0.0821135,-0.0403174,0.0472678,-0.
 0002094,-0.033092,0.0032436,0.0142631,-0.077913,0.0161359,-0.1030995,-
 0.0137532,-0.1118255,-0.078581,-0.0008548,-0.1090235,-0.0283278,-0.003
 6213,-0.0021563,-0.0045649,0.075739,0.0354582,0.0082826,-0.0133675,0.0
 536228,0.0117736,-0.0782295,0.0258624,-0.0802208,-0.0675952,0.0386269,
 0.009698,0.0114275,0.0590309,-0.0005493,0.0799686,-0.0232154,0.0823562
 ,-0.0491395,-0.0075657,0.0119669,0.0432677,0.0443986,0.0132436,-0.0693
 751,0.0350592,-0.1066734,-0.044675,-0.0089439,0.0203025,-0.0427301,0.0
 519956,-0.0035014,0.0730691,-0.0279821,0.1151034,-0.0294793\Polar=59.8
 904995,-1.4790957,54.7948297,0.087261,0.0181712,42.4661859\Quadrupole=
 1.4796521,-2.6025564,1.1229043,-0.8947874,0.044646,0.0099245\PG=C01 [X
 (C4H8O1)]\NImag=0\\0.48898952,0.06596455,0.55947620,-0.00574153,0.0024
 3740,0.51629224,-0.17449595,0.01535109,0.00064249,0.48855539,0.0169230
 5,-0.08357433,-0.00103615,-0.04373232,0.92595936,-0.00102817,-0.000893
 79,-0.08783563,0.00248566,0.00002742,0.24646261,-0.02400069,-0.0161785
 0,-0.00014898,-0.15602672,-0.02586375,-0.00088087,0.46086137,0.0093872
 6,0.01467542,-0.00087861,-0.02617259,-0.08883882,0.00068748,-0.0362632
 7,0.51335443,-0.00054020,0.00044091,0.01716332,-0.00014666,0.00086539,
 -0.09008614,0.00027968,-0.00396017,0.53115107,-0.00124938,-0.00327275,
 0.00004656,-0.03394522,0.00749003,0.00097664,-0.16185188,0.04906413,0.
 00367237,0.49268662,-0.00348572,-0.00372757,-0.00010139,-0.01742144,0.
 01609898,0.00073688,0.04877790,-0.10935292,-0.00158421,0.04395852,0.54
 950147,-0.00016114,-0.00048173,0.00115991,-0.00057064,0.00014474,0.000
 15682,0.00361835,-0.00157331,-0.07984685,0.00293912,-0.00181563,0.5683
 7937,0.00131496,0.04619515,0.00020619,-0.11454117,0.05537607,-0.000230
 82,0.01225364,-0.03211872,0.00016132,0.00187506,-0.00051419,-0.0002397
 6,0.10641075,0.02564644,-0.04406327,0.00085422,0.05345064,-0.71903733,
 -0.00003404,-0.01475458,-0.05566369,-0.00062512,0.00511215,-0.00035470
 ,0.00002300,-0.06594120,0.81969677,0.00003607,0.00174894,0.02533570,0.
 00000901,-0.00020051,-0.07038305,0.00014903,-0.00122916,0.02603810,-0.
 00024345,0.00009305,-0.00228886,0.00058603,0.00019688,0.02378460,-0.18
 770344,-0.13368162,0.01634991,-0.02475544,-0.02515425,0.00252216,-0.00
 393449,0.00502653,-0.00015839,-0.00083364,-0.00159481,-0.00012063,0.00
 594605,0.00006727,-0.00039744,0.20429081,-0.13830964,-0.17823890,0.014
 71165,0.01258511,0.01059353,-0.00157840,0.00197318,-0.00132158,0.00022
 543,0.00069490,0.00060068,0.00005617,-0.00093417,0.00175543,0.00006073
 ,0.14732866,0.18898100,0.01654906,0.01439635,-0.04936418,-0.00138660,-
 0.00012193,-0.00114311,-0.00031164,0.00040285,0.00078375,-0.00005616,-
 0.00009048,0.00054005,0.00010432,-0.00045484,-0.00108103,-0.01733446,-
 0.01655390,0.04779622,-0.05033239,0.01374695,-0.02875637,0.00134758,0.
 01357319,-0.02884671,0.00001110,-0.00127160,0.00281122,0.00001261,0.00
 001330,0.00051186,-0.00349812,0.00271007,0.00376441,0.00380496,-0.0101
 0078,0.02083563,0.04972023,0.01214023,-0.10736363,0.11715868,0.0008520
 2,-0.01080525,0.01317547,-0.00035593,-0.00054013,-0.00093997,0.0000517
 2,0.00006844,-0.00024487,0.00373826,-0.00074847,-0.00257998,0.00404216
 ,-0.00978307,0.01830816,-0.01664426,0.11668828,-0.02478010,0.11419714,
 -0.23412657,0.00044058,-0.00002121,0.00076663,-0.00008632,0.00057830,-
 0.00067275,-0.00021973,-0.00020678,0.00032040,-0.00020335,-0.00117180,
 -0.00069171,0.00030159,-0.00015562,-0.00107326,0.02726156,-0.12554191,
 0.25605719,-0.05038714,0.01074079,0.01767840,0.00412365,0.01796445,0.0
 2575791,0.00023953,-0.00141499,-0.00261371,0.00017491,0.00011191,-0.00
 030609,-0.00483910,0.00379564,-0.00374348,0.00300138,-0.01353421,-0.01
 855259,0.00006586,-0.00318011,-0.00293900,0.04886703,0.00980918,-0.158
 42046,-0.13366013,-0.00069059,-0.01263890,-0.01032519,-0.00065797,-0.0
 0017732,0.00029321,0.00014293,0.00004391,0.00045367,0.00459959,-0.0008
 0552,0.00154767,0.00332557,-0.01253264,-0.01578573,-0.00191525,0.01166
 287,0.01261086,-0.01421345,0.17202963,0.01567376,-0.13144773,-0.187565
 59,-0.00130069,0.00172810,0.00127489,-0.00009046,-0.00014670,-0.000502
 37,0.00024905,0.00021340,0.00020673,-0.00028645,0.00108189,-0.00065513
 ,-0.00120185,0.00323044,0.00302103,0.00245661,-0.01914592,-0.02132171,
 -0.01540710,0.14437390,0.20498018,-0.00114119,-0.00143966,0.00001491,-
 0.00318964,0.00551170,0.00021826,-0.02245284,-0.01973110,-0.00048720,-
 0.19332833,-0.12985718,-0.00382791,0.00084087,-0.00005137,-0.00002913,
 -0.00054817,0.00024439,-0.00003050,0.00001289,0.00000675,-0.00005015,0
 .00005463,0.00000114,0.00004600,0.21281869,0.00065083,0.00085466,-0.00
 000319,0.00327224,-0.00441367,-0.00014004,0.01574785,0.01203354,0.0003
 1568,-0.13159725,-0.16254198,-0.00336634,-0.00174531,0.00141864,0.0000
 4293,0.00034191,-0.00009523,0.00000898,-0.00002564,0.00001874,0.000019
 25,-0.00004939,0.00002462,-0.00001759,0.14139993,0.17547844,0.00004214
 ,0.00005708,0.00011092,0.00025174,-0.00018028,0.00058834,0.00089814,0.
 00088854,-0.00130536,-0.00391309,-0.00344860,-0.04808508,-0.00000514,0
 .00000611,0.00035892,0.00001376,-0.00000595,-0.00000137,0.00000918,-0.
 00000560,-0.00001143,-0.00000214,-0.00000741,-0.00000825,0.00403541,0.
 00392386,0.04610611,-0.00000352,0.00001838,-0.00013602,0.00115929,0.00
 207988,0.00088971,-0.00325315,0.01645355,0.02629515,-0.04819416,0.0089
 9064,0.01327019,0.00019578,-0.00136882,-0.00033249,-0.00001582,-0.0000
 7919,-0.00008235,-0.00002952,0.00001281,-0.00000449,0.00013290,-0.0001
 5790,-0.00012260,0.00214511,-0.01216064,-0.02144570,0.05250502,0.00011
 422,-0.00004985,-0.00014019,-0.00103607,-0.00032105,0.00044083,0.00228
 822,-0.00954867,-0.01306186,0.01015100,-0.12460317,-0.12050176,-0.0000
 4802,0.00079571,0.00000318,0.00002074,0.00004304,0.00005272,0.00000053
 ,-0.00002804,0.00001183,-0.00002095,0.00002244,0.00006577,0.00192233,-
 0.01145998,-0.01752500,-0.01414794,0.13397413,0.00014663,0.00028185,-0
 .00019164,-0.00041743,-0.00204556,0.00015213,0.00101067,0.00087244,0.0
 0059600,0.01557792,-0.12032125,-0.23317083,-0.00086134,0.00118647,0.00
 051079,0.00008729,-0.00000844,0.00000426,-0.00007536,0.00004887,-0.000
 03308,-0.00002709,0.00003189,0.00002423,-0.00086230,0.00094696,0.00056
 512,-0.01604339,0.13311559,0.25053425,0.00001582,-0.00014479,0.0001262
 8,0.00102068,0.00212036,-0.00081928,-0.00382349,0.01887267,-0.02462003
 ,-0.04898669,0.01391414,-0.01695285,0.00016260,-0.00147814,0.00035809,
 -0.00005050,-0.00007242,0.00008349,0.00015659,-0.00010454,0.00013070,0
 .00005795,0.00001028,-0.00004198,0.00274603,-0.01409423,0.02020926,-0.
 00048034,-0.00163954,0.00126133,0.05334750,0.00013163,0.00003443,0.000
 13735,-0.00102468,-0.00053782,-0.00031412,0.00278257,-0.01062059,0.011
 99123,0.01536016,-0.14753661,0.12835362,-0.00033562,0.00087725,-0.0001
 5645,0.00002641,0.00003490,-0.00004548,-0.00002953,-0.00001634,-0.0000
 6847,-0.00001979,-0.00003058,0.00001008,0.00231709,-0.01284758,0.01621
 553,-0.00193696,0.01187758,-0.01417131,-0.01961907,0.15939405,-0.00012
 249,-0.00030179,-0.00012630,0.00031931,0.00202769,0.00015641,-0.000732
 34,-0.00238226,0.00228057,-0.01928598,0.12813127,-0.21013481,0.0010116
 0,-0.00108727,0.00037356,-0.00007926,0.00001898,-0.00000915,0.00002462
 ,-0.00001581,0.00000088,0.00007575,-0.00006438,-0.00002722,0.00102757,
 -0.00182681,0.00143285,-0.00202957,0.01714151,-0.02123855,0.01957625,-
 0.14124023,0.22510891,-0.00055120,0.00137266,0.00242254,0.00479433,-0.
 01215561,-0.02447466,-0.04810863,0.00625361,0.00766309,-0.00288543,0.0
 1753822,0.02563089,-0.00285799,-0.00337009,0.00353036,0.00028721,0.000
 13193,0.00029904,0.00024665,-0.00041570,-0.00000411,-0.00157362,-0.000
 08049,-0.00014435,0.00105029,-0.00087943,0.00008058,-0.00544373,0.0029
 0522,-0.00034508,0.00129378,-0.00045781,-0.00059948,0.05367708,0.00045
 666,-0.00003991,0.00174911,0.00169135,-0.01553852,-0.01975551,0.008617
 80,-0.12063079,-0.12072550,0.00133416,-0.00868320,-0.01229704,-0.00391
 583,-0.00186677,0.00290740,0.00007651,0.00000479,0.00036117,0.00048292
 ,0.00010354,0.00010653,-0.00039950,0.00083395,0.00017081,-0.00019655,0
 .00075485,0.00042999,0.00266745,-0.00072141,0.00017040,-0.00038821,0.0
 0003789,0.00002985,-0.01017622,0.13395217,0.00001481,-0.00042748,-0.00
 047876,0.00095053,-0.00011808,-0.00047127,0.01104354,-0.11739253,-0.21
 409635,0.00058115,0.00037454,0.00048520,-0.00050379,0.00102434,-0.0006
 4621,-0.00016600,0.00015006,0.00030264,0.00002799,-0.00007245,0.000073
 65,-0.00003820,0.00039062,0.00071874,0.00059222,0.00005220,0.00013661,
 0.00006424,0.00041035,0.00151069,0.00026650,-0.00001745,0.00077299,-0.
 01305461,0.12963036,0.23472098,-0.00045539,0.00132776,-0.00270438,0.00
 595321,-0.01413281,0.02343017,-0.04991376,0.01191452,-0.01231664,-0.00
 347445,0.01956872,-0.02379142,-0.00326332,-0.00381799,-0.00368701,0.00
 051108,0.00007224,-0.00011725,-0.00151845,-0.00014341,0.00015284,0.000
 08202,-0.00017305,0.00017006,0.00099167,-0.00086088,-0.00017413,0.0012
 8214,-0.00050974,0.00054814,-0.00545994,0.00280560,0.00081404,0.000071
 24,-0.00025055,0.00022163,0.05519395,0.00057131,0.00043720,-0.00122875
 ,0.00287526,-0.01694616,0.01797301,0.01388649,-0.14336888,0.12676496,0
 .00151031,-0.00951332,0.01124948,-0.00435601,-0.00200404,-0.00243470,0
 .00017491,-0.00004194,-0.00047788,-0.00053989,0.00074306,-0.00035812,0
 .00021957,-0.00001200,-0.00011647,-0.00012747,0.00077495,-0.00034826,-
 0.00037125,0.00001927,-0.00010790,0.00262348,-0.00066658,-0.00043076,-
 0.00066631,0.01179341,-0.01400449,-0.01580040,0.15878502,-0.00008883,-
 0.00000714,-0.00037343,-0.00127729,-0.00106962,0.00036136,-0.01474880,
 0.12413313,-0.19150299,-0.00032439,-0.00198080,0.00227794,0.00026119,-
 0.00099986,-0.00065567,0.00018330,-0.00015116,0.00022415,-0.00002464,-
 0.00014468,0.00071176,0.00011735,0.00014101,-0.00014552,-0.00064717,0.
 00004410,0.00011262,-0.00032269,-0.00001297,0.00073664,0.00042225,-0.0
 0069431,0.00140986,-0.00100422,0.01722242,-0.02302889,0.01745396,-0.13
 648013,0.20987218\\-0.00001512,0.00000195,0.00000450,0.00000263,0.0000
 2771,-0.00000795,0.00000479,-0.00000950,0.00000248,0.00000553,0.000001
 48,0.00000293,0.00000480,-0.00003242,0.00000390,0.00000347,0.00000339,
 -0.00000010,0.00000363,0.00000102,-0.00000160,0.00000069,0.00000180,0.
 00000074,-0.00000205,0.00000154,0.00000129,0.00000179,0.00000268,-0.00
 000305,-0.00000429,-0.00000209,-0.00000129,-0.00000156,0.00000380,0.00
 000197,-0.00000430,-0.00000137,-0.00000383\\\@


 A BIRD IN THE HAND IS SAFER THAN ONE OVERHEAD.

                       -- NEWTON'S SEVENTH LAW
 Job cpu time:       0 days  0 hours 55 minutes 26.3 seconds.
 Elapsed time:       0 days  0 hours  9 minutes 14.9 seconds.
 File lengths (MBytes):  RWF=     79 Int=      0 D2E=      0 Chk=      7 Scr=      1
 Normal termination of Gaussian 16 at Sat Sep 16 15:32:34 2023.
