 Entering Gaussian System, Link 0=g16
 AtFile(1): pcseg2.gbs
            -H     0
            S   4   1.00
                  0.754732D+02           0.427821D-02
                  0.113575D+02           0.328672D-01
                  0.260081D+01           0.159578D+00
                  0.735503D+00           0.500000D+00
            S   1   1.00
                  0.231761D+00           1.0000000
            S   1   1.00
                  0.741675D-01           1.0000000
            P   1   1.00
                  0.160000D+01           1.0000000
            P   1   1.00
                  0.450000D+00           1.0000000
            D   1   1.00
                  0.125000D+01           1.0000000
            ****
            -C     0
            S   7   1.00
                  0.731999D+04           0.695369D-03
                  0.109818D+04           0.537138D-02
                  0.250014D+03           0.274734D-01
                  0.707586D+02           0.105078D+00
                  0.228595D+02           0.291262D+00
                  0.803936D+01           0.500000D+00
                  0.289309D+01           0.362224D+00
            S   2   1.00
                  0.521640D+01          -0.957844D-01
                  0.556124D+00           0.500000D+00
            S   1   1.00
                  0.228813D+00           1.0000000
            S   1   1.00
                  0.936338D-01           1.0000000
            P   4   1.00
                  0.339855D+02           0.818395D-02
                  0.772957D+01           0.586921D-01
                  0.224954D+01           0.222514D+00
                  0.767681D+00           0.500000D+00
            P   1   1.00
                  0.263283D+00           1.0000000
            P   1   1.00
                  0.848744D-01           1.0000000
            D   1   1.00
                  0.140000D+01           1.0000000
            D   1   1.00
                  0.450000D+00           1.0000000
            F   1   1.00
                  0.950000D+00           1.0000000
            ****
            -O     0
            S   7   1.00
                  0.135887D+05           0.665492D-03
                  0.203847D+04           0.514222D-02
                  0.464041D+03           0.263472D-01
                  0.131339D+03           0.101500D+00
                  0.425340D+02           0.285877D+00
                  0.150429D+02           0.500000D+00
                  0.546616D+01           0.368211D+00
            S   2   1.00
                  0.100915D+02          -0.100084D+00
                  0.110429D+01           0.500000D+00
            S   1   1.00
                  0.448082D+00           1.0000000
            S   1   1.00
                  0.175325D+00           1.0000000
            P   4   1.00
                  0.608220D+02           0.908253D-02
                  0.140332D+02           0.645878D-01
                  0.418244D+01           0.241502D+00
                  0.142490D+01           0.500000D+00
            P   1   1.00
                  0.478741D+00           1.0000000
            P   1   1.00
                  0.146257D+00           1.0000000
            D   1   1.00
                  0.220000D+01           1.0000000
            D   1   1.00
                  0.650000D+00           1.0000000
            F   1   1.00
                  0.110000D+01           1.0000000
            ****
            -N     0
            S   7   1.00
                  0.101643D+05           0.682757D-03
                  0.152481D+04           0.527488D-02
                  0.347119D+03           0.270037D-01
                  0.982389D+02           0.103673D+00
                  0.317799D+02           0.289575D+00
                  0.112240D+02           0.500000D+00
                  0.406611D+01           0.364621D+00
            S   2   1.00
                  0.747898D+01          -0.975681D-01
                  0.805040D+00           0.500000D+00
            S   1   1.00
                  0.324626D+00           1.0000000
            S   1   1.00
                  0.128132D+00           1.0000000
            P   4   1.00
                  0.482704D+02           0.829547D-02
                  0.110815D+02           0.596223D-01
                  0.326643D+01           0.227889D+00
                  0.111680D+01           0.500000D+00
            P   1   1.00
                  0.382049D+00           1.0000000
            P   1   1.00
                  0.121222D+00           1.0000000
            D   1   1.00
                  0.180000D+01           1.0000000
            D   1   1.00
                  0.550000D+00           1.0000000
            F   1   1.00
                  0.102000D+01           1.0000000
            ****
            -F     0
            S   7   1.00
                  0.174507D+05           0.655972D-03
                  0.261768D+04           0.506944D-02
                  0.595857D+03           0.259899D-01
                  0.168651D+03           0.100353D+00
                  0.546654D+02           0.284095D+00
                  0.193717D+02           0.500000D+00
                  0.706202D+01           0.370721D+00
            S   2   1.00
                  0.131197D+02          -0.101997D+00
                  0.145046D+01           0.500000D+00
            S   1   1.00
                  0.588255D+00           1.0000000
            S   1   1.00
                  0.227960D+00           1.0000000
            P   4   1.00
                  0.779407D+02           0.931135D-02
                  0.180425D+02           0.663964D-01
                  0.542342D+01           0.246386D+00
                  0.184876D+01           0.500000D+00
            P   1   1.00
                  0.617455D+00           1.0000000
            P   1   1.00
                  0.185496D+00           1.0000000
            D   1   1.00
                  0.280000D+01           1.0000000
            D   1   1.00
                  0.800000D+00           1.0000000
            F   1   1.00
                  0.120000D+01           1.0000000
            ****
            -Cl     0
            S   8   1.00
                  0.154272D+06           0.222473D-03
                  0.231232D+05           0.172590D-02
                  0.526257D+04           0.899286D-02
                  0.148995D+04           0.367724D-01
                  0.485417D+03           0.121446D+00
                  0.174634D+03           0.304148D+00
                  0.672393D+02           0.500000D+00
                  0.265780D+02           0.360252D+00
            S   3   1.00
                  0.131826D+03          -0.531330D-01
                  0.400703D+02          -0.233346D+00
                  0.789448D+01           0.500000D+00
            S   2   1.00
                  0.427711D+01           0.500000D+00
                  0.196233D+01           0.370517D+00
            S   1   1.00
                  0.520793D+00           1.0000000
            S   1   1.00
                  0.181633D+00           1.0000000
            P   7   1.00
                  0.124440D+04           0.988206D-03
                  0.295109D+03           0.829674D-02
                  0.947224D+02           0.430906D-01
                  0.352588D+02           0.148443D+00
                  0.144211D+02           0.344744D+00
                  0.610371D+01           0.500000D+00
                  0.258886D+01           0.348278D+00
            P   2   1.00
                  0.109447D+02          -0.196768D-01
                  0.104413D+01           0.500000D+00
            P   1   1.00
                  0.376184D+00           1.0000000
            P   1   1.00
                  0.120613D+00           1.0000000
            D   1   1.00
                  0.231000D+01           1.0000000
            D   1   1.00
                  0.520000D+00           1.0000000
            F   1   1.00
                  0.720000D+00           1.0000000
            ****
            -S     0
            S   8   1.00
                  0.134700D+06           0.226231D-03
                  0.201904D+05           0.175488D-02
                  0.459528D+04           0.914190D-02
                  0.130109D+04           0.373551D-01
                  0.423902D+03           0.123121D+00
                  0.152485D+03           0.306801D+00
                  0.586925D+02           0.500000D+00
                  0.231461D+02           0.354358D+00
            S   3   1.00
                  0.116327D+03          -0.491772D-01
                  0.352841D+02          -0.215962D+00
                  0.677831D+01           0.500000D+00
            S   2   1.00
                  0.360404D+01           0.500000D+00
                  0.164871D+01           0.366278D+00
            S   1   1.00
                  0.421821D+00           1.0000000
            S   1   1.00
                  0.147554D+00           1.0000000
            P   7   1.00
                  0.104863D+04           0.105273D-02
                  0.248717D+03           0.879338D-02
                  0.797887D+02           0.453358D-01
                  0.296023D+02           0.154476D+00
                  0.120627D+02           0.352366D+00
                  0.507628D+01           0.500000D+00
                  0.213375D+01           0.346429D+00
            P   2   1.00
                  0.928958D+01          -0.185932D-01
                  0.837819D+00           0.500000D+00
            P   1   1.00
                  0.301495D+00           1.0000000
            P   1   1.00
                  0.974740D-01           1.0000000
            D   1   1.00
                  0.210000D+01           1.0000000
            D   1   1.00
                  0.480000D+00           1.0000000
            F   1   1.00
                  0.660000D+00           1.0000000
            ****
            -Br     0
            S    10   1.00
                  0.233625D+07           0.532336D-04
                  0.349961D+06           0.413715D-03
                  0.796444D+05           0.217123D-02
                  0.225555D+05           0.910109D-02
                  0.735546D+04           0.323789D-01
                  0.265352D+04           0.988755D-01
                  0.103517D+04           0.248138D+00
                  0.422205D+03           0.474328D+00
                  0.180035D+03           0.500000D+00
                  0.793308D+02           0.187769D+00
            S    4   1.00
                  0.620834D+03          -0.226511D-01
                  0.190829D+03          -0.109497D+00
                  0.312505D+02           0.500000D+00
                  0.135270D+02           0.492812D+00
            S    2   1.00
                  0.216097D+02          -0.165418D+00
                  0.372566D+01           0.500000D+00
            S    1   1.00
                  0.169770D+01           1.0000000
            S    1   1.00
                  0.489332D+00           1.0000000
            S    1   1.00
                  0.175712D+00           1.0000000
            P    8   1.00
                  0.960829D+04           0.478974D-03
                  0.227618D+04           0.417853D-02
                  0.736723D+03           0.229315D-01
                  0.281579D+03           0.892653D-01
                  0.118395D+03           0.255288D+00
                  0.527481D+02           0.479074D+00
                  0.245098D+02           0.500000D+00
                  0.112009D+02           0.200944D+00
            P    4   1.00
                  0.587849D+02          -0.189674D-01
                  0.918962D+01           0.264104D+00
                  0.413895D+01           0.500000D+00
                  0.184225D+01           0.319316D+00
            P    1   1.00
                  0.713862D+00           1.0000000
            P    1   1.00
                  0.274232D+00           1.0000000
            P    1   1.00
                  0.944411D-01           1.0000000
            D    7   1.00
                  0.398470D+03           0.204066D-02
                  0.118967D+03           0.175171D-01
                  0.450197D+02           0.829708D-01
                  0.190320D+02           0.236284D+00
                  0.855686D+01           0.428468D+00
                  0.382950D+01           0.500000D+00
                  0.166291D+01           0.349360D+00
            D    1   1.00
                  0.672953D+00           1.0000000
            D    1   1.00
                  0.252000D+00           1.0000000
            F    1   1.00
                  0.530000D+00           1.0000000
            ****
            -Si     0
            S    8   1.00
                  0.996133D+05           0.235546D-03
                  0.149311D+05           0.182707D-02
                  0.339820D+04           0.951425D-02
                  0.962140D+03           0.388172D-01
                  0.313430D+03           0.127328D+00
                  0.112683D+03           0.313522D+00
                  0.433372D+02           0.500000D+00
                  0.170029D+02           0.340347D+00
            S    3   1.00
                  0.884208D+02          -0.404451D-01
                  0.266756D+02          -0.178059D+00
                  0.479640D+01           0.500000D+00
            S    2   1.00
                  0.239385D+01           0.500000D+00
                  0.108333D+01           0.338016D+00
            S    1   1.00
                  0.252420D+00           1.0000000
            S    1   1.00
                  0.891210D-01           1.0000000
            P    7   1.00
                  0.709901D+03           0.123028D-02
                  0.168426D+03           0.101366D-01
                  0.539946D+02           0.511840D-01
                  0.198646D+02           0.169967D+00
                  0.801369D+01           0.370717D+00
                  0.331870D+01           0.500000D+00
                  0.136112D+01           0.344128D+00
            P    2   1.00
                  0.622158D+01          -0.166609D-01
                  0.503049D+00           0.500000D+00
            P    1   1.00
                  0.179848D+00           1.0000000
            P    1   1.00
                  0.591912D-01           1.0000000
            D    1   1.00
                  0.168000D+01           1.0000000
            D    1   1.00
                  0.380000D+00           1.0000000
            F    1   1.00
                  0.540000D+00           1.0000000
            ****
            -P     0
            S    8   1.00
                  0.116416D+06           0.230715D-03
                  0.174500D+05           0.178960D-02
                  0.397149D+04           0.932116D-02
                  0.112447D+04           0.380591D-01
                  0.366347D+03           0.125148D+00
                  0.131757D+03           0.310022D+00
                  0.506988D+02           0.500000D+00
                  0.199436D+02           0.347528D+00
            S    3   1.00
                  0.101878D+03          -0.446755D-01
                  0.308249D+02          -0.196376D+00
                  0.573688D+01           0.500000D+00
            S    2   1.00
                  0.296868D+01           0.500000D+00
                  0.135315D+01           0.355098D+00
            S    1   1.00
                  0.332196D+00           1.0000000
            S    1   1.00
                  0.116229D+00           1.0000000
            P    7   1.00
                  0.873928D+03           0.112375D-02
                  0.207298D+03           0.933330D-02
                  0.664628D+02           0.477213D-01
                  0.245665D+02           0.160733D+00
                  0.996820D+01           0.359760D+00
                  0.416536D+01           0.500000D+00
                  0.173022D+01           0.346593D+00
            P    2   1.00
                  0.772530D+01          -0.175718D-01
                  0.657252D+00           0.500000D+00
            P    1   1.00
                  0.239903D+00           1.0000000
            P    1   1.00
                  0.800988D-01           1.0000000
            D    1   1.00
                  0.189000D+01           1.0000000
            D    1   1.00
                  0.430000D+00           1.0000000
            F    1   1.00
                  0.600000D+00           1.0000000
            ****
            
 Initial command:
 /usr/local/apps/g16_b01_avx/g16/l1.exe "/wrk/irikura/Gau-7395.inp" -scrdir="/wrk/irikura/"
 Entering Link 1 = /usr/local/apps/g16_b01_avx/g16/l1.exe PID=      7397.
  
 Copyright (c) 1988-2017, Gaussian, Inc.  All Rights Reserved.
  
 This is part of the Gaussian(R) 16 program.  It is based on
 the Gaussian(R) 09 system (copyright 2009, Gaussian, Inc.),
 the Gaussian(R) 03 system (copyright 2003, Gaussian, Inc.),
 the Gaussian(R) 98 system (copyright 1998, Gaussian, Inc.),
 the Gaussian(R) 94 system (copyright 1995, Gaussian, Inc.),
 the Gaussian 92(TM) system (copyright 1992, Gaussian, Inc.),
 the Gaussian 90(TM) system (copyright 1990, Gaussian, Inc.),
 the Gaussian 88(TM) system (copyright 1988, Gaussian, Inc.),
 the Gaussian 86(TM) system (copyright 1986, Carnegie Mellon
 University), and the Gaussian 82(TM) system (copyright 1983,
 Carnegie Mellon University). Gaussian is a federally registered
 trademark of Gaussian, Inc.
  
 This software contains proprietary and confidential information,
 including trade secrets, belonging to Gaussian, Inc.
  
 This software is provided under written license and may be
 used, copied, transmitted, or stored only in accord with that
 written license.
  
 The following legend is applicable only to US Government
 contracts under FAR:
  
                    RESTRICTED RIGHTS LEGEND
  
 Use, reproduction and disclosure by the US Government is
 subject to restrictions as set forth in subparagraphs (a)
 and (c) of the Commercial Computer Software - Restricted
 Rights clause in FAR 52.227-19.
  
 Gaussian, Inc.
 340 Quinnipiac St., Bldg. 40, Wallingford CT 06492
  
  
 ---------------------------------------------------------------
 Warning -- This program may not be used in any manner that
 competes with the business of Gaussian, Inc. or will provide
 assistance to any competitor of Gaussian, Inc.  The licensee
 of this program is prohibited from giving any competitor of
 Gaussian, Inc. access to this program.  By using this program,
 the user acknowledges that Gaussian, Inc. is engaged in the
 business of creating and licensing software in the field of
 computational chemistry and represents and warrants to the
 licensee that it is not a competitor of Gaussian, Inc. and that
 it will not use this program in any manner prohibited above.
 ---------------------------------------------------------------
  

 Cite this work as:
 Gaussian 16, Revision B.01,
 M. J. Frisch, G. W. Trucks, H. B. Schlegel, G. E. Scuseria, 
 M. A. Robb, J. R. Cheeseman, G. Scalmani, V. Barone, 
 G. A. Petersson, H. Nakatsuji, X. Li, M. Caricato, A. V. Marenich, 
 J. Bloino, B. G. Janesko, R. Gomperts, B. Mennucci, H. P. Hratchian, 
 J. V. Ortiz, A. F. Izmaylov, J. L. Sonnenberg, D. Williams-Young, 
 F. Ding, F. Lipparini, F. Egidi, J. Goings, B. Peng, A. Petrone, 
 T. Henderson, D. Ranasinghe, V. G. Zakrzewski, J. Gao, N. Rega, 
 G. Zheng, W. Liang, M. Hada, M. Ehara, K. Toyota, R. Fukuda, 
 J. Hasegawa, M. Ishida, T. Nakajima, Y. Honda, O. Kitao, H. Nakai, 
 T. Vreven, K. Throssell, J. A. Montgomery, Jr., J. E. Peralta, 
 F. Ogliaro, M. J. Bearpark, J. J. Heyd, E. N. Brothers, K. N. Kudin, 
 V. N. Staroverov, T. A. Keith, R. Kobayashi, J. Normand, 
 K. Raghavachari, A. P. Rendell, J. C. Burant, S. S. Iyengar, 
 J. Tomasi, M. Cossi, J. M. Millam, M. Klene, C. Adamo, R. Cammi, 
 J. W. Ochterski, R. L. Martin, K. Morokuma, O. Farkas, 
 J. B. Foresman, and D. J. Fox, Gaussian, Inc., Wallingford CT, 2016.
 
 ******************************************
 Gaussian 16:  ES64L-G16RevB.01 20-Dec-2017
                17-Jun-2022 
 ******************************************
 %mem=1000mw
 %nprocs=12
 Will use up to   12 processors via shared memory.
 --------------------
 # b3lyp/gen opt freq
 --------------------
 1/18=20,19=15,26=3,38=1/1,3;
 2/9=110,12=2,17=6,18=5,40=1/2;
 3/5=7,11=2,25=1,30=1,71=1,74=-5/1,2,3;
 4//1;
 5/5=2,38=5/2;
 6/7=2,8=2,9=2,10=2,28=1/1;
 7//1,2,3,16;
 1/18=20,19=15,26=3/3(2);
 2/9=110/2;
 99//99;
 2/9=110/2;
 3/5=7,6=1,11=2,25=1,30=1,71=1,74=-5,82=7/1,2,3;
 4/5=5,16=3,69=1/1;
 5/5=2,38=5/2;
 7//1,2,3,16;
 1/18=20,19=15,26=3/3(-5);
 2/9=110/2;
 6/7=2,8=2,9=2,10=2,19=2,28=1/1;
 99/9=1/99;
 -----------------------------------
 dinitrogen tetroxide, B3LYP/pcseg-2
 -----------------------------------
 Symbolic Z-matrix:
 Charge =  0 Multiplicity = 1
 N                     0.        0.        0.90551 
 N                     0.        0.       -0.90551 
 O                     0.        1.09528   1.36383 
 O                     0.       -1.09528   1.36383 
 O                     0.        1.09528  -1.36383 
 O                     0.       -1.09528  -1.36383 
 
 Add virtual bond connecting atoms N2         and N1         Dist= 3.42D+00.

 GradGradGradGradGradGradGradGradGradGradGradGradGradGradGradGradGradGrad
 Berny optimization.
 Initialization pass.
                           ----------------------------
                           !    Initial Parameters    !
                           ! (Angstroms and Degrees)  !
 --------------------------                            --------------------------
 ! Name  Definition              Value          Derivative Info.                !
 --------------------------------------------------------------------------------
 ! R1    R(1,2)                  1.811          estimate D2E/DX2                !
 ! R2    R(1,3)                  1.1873         estimate D2E/DX2                !
 ! R3    R(1,4)                  1.1873         estimate D2E/DX2                !
 ! R4    R(2,5)                  1.1873         estimate D2E/DX2                !
 ! R5    R(2,6)                  1.1873         estimate D2E/DX2                !
 ! A1    A(2,1,3)              112.7071         estimate D2E/DX2                !
 ! A2    A(2,1,4)              112.7071         estimate D2E/DX2                !
 ! A3    A(3,1,4)              134.5859         estimate D2E/DX2                !
 ! A4    A(1,2,5)              112.7071         estimate D2E/DX2                !
 ! A5    A(1,2,6)              112.7071         estimate D2E/DX2                !
 ! A6    A(5,2,6)              134.5859         estimate D2E/DX2                !
 ! D1    D(3,1,2,5)              0.0            estimate D2E/DX2                !
 ! D2    D(3,1,2,6)            180.0            estimate D2E/DX2                !
 ! D3    D(4,1,2,5)            180.0            estimate D2E/DX2                !
 ! D4    D(4,1,2,6)              0.0            estimate D2E/DX2                !
 --------------------------------------------------------------------------------
 Trust Radius=3.00D-01 FncErr=1.00D-07 GrdErr=1.00D-06 EigMax=2.50D+02 EigMin=1.00D-04
 Number of steps in this run=     25 maximum allowed number of steps=    100.
 GradGradGradGradGradGradGradGradGradGradGradGradGradGradGradGradGradGrad

                          Input orientation:                          
 ---------------------------------------------------------------------
 Center     Atomic      Atomic             Coordinates (Angstroms)
 Number     Number       Type             X           Y           Z
 ---------------------------------------------------------------------
      1          7           0        0.000000    0.000000    0.905506
      2          7           0        0.000000    0.000000   -0.905506
      3          8           0        0.000000    1.095279    1.363830
      4          8           0        0.000000   -1.095279    1.363830
      5          8           0        0.000000    1.095279   -1.363830
      6          8           0        0.000000   -1.095279   -1.363830
 ---------------------------------------------------------------------
                    Distance matrix (angstroms):
                    1          2          3          4          5
     1  N    0.000000
     2  N    1.811012   0.000000
     3  O    1.187307   2.519826   0.000000
     4  O    1.187307   2.519826   2.190558   0.000000
     5  O    2.519826   1.187307   2.727660   3.498382   0.000000
     6  O    2.519826   1.187307   3.498382   2.727660   2.190558
                    6
     6  O    0.000000
 Stoichiometry    N2O4
 Framework group  D2H[C2"(N.N),SG(O4)]
 Deg. of freedom     3
 Full point group                 D2H     NOp   8
 Largest Abelian subgroup         D2H     NOp   8
 Largest concise Abelian subgroup D2      NOp   4
                         Standard orientation:                         
 ---------------------------------------------------------------------
 Center     Atomic      Atomic             Coordinates (Angstroms)
 Number     Number       Type             X           Y           Z
 ---------------------------------------------------------------------
      1          7           0        0.000000    0.000000    0.905506
      2          7           0        0.000000    0.000000   -0.905506
      3          8           0        0.000000    1.095279    1.363830
      4          8           0       -0.000000   -1.095279    1.363830
      5          8           0        0.000000    1.095279   -1.363830
      6          8           0       -0.000000   -1.095279   -1.363830
 ---------------------------------------------------------------------
 Rotational constants (GHZ):           6.5845448           3.5598188           2.3106217
 General basis read from cards:  (5D, 7F)
 There are    40 symmetry adapted cartesian basis functions of AG  symmetry.
 There are    14 symmetry adapted cartesian basis functions of B1G symmetry.
 There are    19 symmetry adapted cartesian basis functions of B2G symmetry.
 There are    32 symmetry adapted cartesian basis functions of B3G symmetry.
 There are    14 symmetry adapted cartesian basis functions of AU  symmetry.
 There are    40 symmetry adapted cartesian basis functions of B1U symmetry.
 There are    32 symmetry adapted cartesian basis functions of B2U symmetry.
 There are    19 symmetry adapted cartesian basis functions of B3U symmetry.
 There are    33 symmetry adapted basis functions of AG  symmetry.
 There are    13 symmetry adapted basis functions of B1G symmetry.
 There are    17 symmetry adapted basis functions of B2G symmetry.
 There are    27 symmetry adapted basis functions of B3G symmetry.
 There are    13 symmetry adapted basis functions of AU  symmetry.
 There are    33 symmetry adapted basis functions of B1U symmetry.
 There are    27 symmetry adapted basis functions of B2U symmetry.
 There are    17 symmetry adapted basis functions of B3U symmetry.
   180 basis functions,   306 primitive gaussians,   210 cartesian basis functions
    23 alpha electrons       23 beta electrons
       nuclear repulsion energy       236.3102493598 Hartrees.
 NAtoms=    6 NActive=    6 NUniq=    2 SFac= 4.00D+00 NAtFMM=   60 NAOKFM=F Big=F
 Integral buffers will be    131072 words long.
 Raffenetti 2 integral format.
 Two-electron integral symmetry is turned on.
 One-electron integrals computed using PRISM.
 NBasis=   180 RedAO= T EigKep=  7.00D-04  NBF=    33    13    17    27    13    33    27    17
 NBsUse=   180 1.00D-06 EigRej= -1.00D+00 NBFU=    33    13    17    27    13    33    27    17
 ExpMin= 1.21D-01 ExpMax= 1.36D+04 ExpMxC= 4.64D+02 IAcc=3 IRadAn=         5 AccDes= 0.00D+00
 Harris functional with IExCor=  402 and IRadAn=       5 diagonalized for initial guess.
 HarFok:  IExCor=  402 AccDes= 0.00D+00 IRadAn=         5 IDoV= 1 UseB2=F ITyADJ=14
 ICtDFT=  3500011 ScaDFX=  1.000000  1.000000  1.000000  1.000000
 FoFCou: FMM=F IPFlag=           0 FMFlag=      100000 FMFlg1=           0
         NFxFlg=           0 DoJE=T BraDBF=F KetDBF=T FulRan=T
         wScrn=  0.000000 ICntrl=       500 IOpCl=  0 I1Cent=   200000004 NGrid=           0
         NMat0=    1 NMatS0=      1 NMatT0=    0 NMatD0=    1 NMtDS0=    0 NMtDT0=    0
 Petite list used in FoFCou.
 Initial guess orbital symmetries:
       Occupied  (B3G) (B1U) (B2U) (AG) (AG) (B1U) (AG) (B1U) (B2U)
                 (B3G) (AG) (B1U) (AG) (B2U) (B3G) (B3U) (B2G)
                 (B1U) (B2U) (B1G) (AU) (B3G) (AG)
       Virtual   (B3U) (B2G) (B1U) (AG) (B1U) (B2U) (B3G) (B3U)
                 (B1U) (AG) (B2G) (AG) (AG) (B1G) (B1U) (B2U) (B2U)
                 (AU) (B3U) (B1U) (B2U) (B3G) (AG) (B3G) (B2G)
                 (B3G) (B1U) (AG) (B1U) (B2U) (B3G) (B3U) (AG)
                 (B1G) (B2U) (B2G) (AU) (B1U) (AG) (B2U) (AU) (B1G)
                 (B3G) (B3U) (B3G) (B1U) (AG) (B2G) (B3U) (B1U)
                 (B2U) (AG) (B3G) (AG) (B1U) (B2U) (B2G) (B3U)
                 (B2G) (B1G) (B1U) (AU) (AG) (B3G) (B2U) (B3G)
                 (B2U) (B1G) (B3U) (B2G) (AG) (B1U) (AU) (B3G)
                 (AG) (B1U) (AG) (B2U) (B1U) (B3G) (B3U) (B1U)
                 (AG) (B1G) (B2U) (AU) (B3G) (B2G) (B3U) (B2G)
                 (B2U) (B1U) (AG) (B1G) (AU) (B3G) (B2U) (B3U)
                 (B1U) (B2G) (B1G) (AG) (B3G) (B1U) (AU) (AG) (B2U)
                 (B1U) (B3G) (B3U) (B2G) (AG) (B2U) (B1U) (AG)
                 (B3U) (B3G) (B1G) (B2G) (AU) (AG) (B1U) (B1G)
                 (B2U) (AU) (B2U) (B3G) (B1U) (B1G) (B3U) (AU)
                 (B3U) (AG) (B2G) (B2U) (B2G) (B1U) (B3G) (B2U)
                 (B3U) (B2G) (B1G) (B3G) (AG) (B2U) (AU) (B3G)
                 (AG) (B1U) (B1U) (B3G) (AG) (B2U) (B1U) (AG) (B3G)
                 (B1U)
 The electronic state of the initial guess is 1-AG.
 Keep R1 ints in memory in symmetry-blocked form, NReq=149558585.
 Requested convergence on RMS density matrix=1.00D-08 within 128 cycles.
 Requested convergence on MAX density matrix=1.00D-06.
 Requested convergence on             energy=1.00D-06.
 No special actions if energy rises.
 Integral accuracy reduced to 1.0D-05 until final iterations.
 Initial convergence to 1.0D-05 achieved.  Increase integral accuracy.
 SCF Done:  E(RB3LYP) =  -410.349496734     A.U. after   11 cycles
            NFock= 11  Conv=0.74D-08     -V/T= 2.0029

 **********************************************************************

            Population analysis using the SCF Density.

 **********************************************************************

 Orbital symmetries:
       Occupied  (B3G) (B2U) (AG) (B1U) (AG) (B1U) (AG) (B1U) (B2U)
                 (B3G) (AG) (B1U) (AG) (B3U) (B2U) (B2G) (B3G)
                 (B1U) (B2U) (B1G) (AU) (B3G) (AG)
       Virtual   (B3U) (B1U) (B2G) (AG) (B1U) (B2U) (B3U) (B3G)
                 (AG) (B1U) (B2G) (AG) (B1G) (AG) (B1U) (B2U) (B2U)
                 (AU) (B3U) (B1U) (B2U) (B3G) (AG) (B3G) (B2G)
                 (B1U) (B3G) (AG) (B1U) (B2U) (B3U) (B3G) (AG)
                 (B1G) (B2U) (B2G) (AU) (B1U) (AG) (B2U) (B3G)
                 (AU) (B1G) (B3U) (B3G) (B1U) (AG) (B3U) (B2G)
                 (B1U) (AG) (B2U) (B2G) (B3G) (AG) (B1U) (B2U)
                 (B3U) (B2G) (B1G) (B1U) (AU) (AG) (B3G) (B2U)
                 (B3G) (B2U) (B1G) (B3U) (B2G) (AG) (B1U) (AU)
                 (B3G) (B1U) (AG) (AG) (B2U) (B1U) (B3G) (B3U)
                 (B1U) (AG) (B1G) (AU) (B2U) (B3G) (B2G) (B3U)
                 (B2G) (B2U) (B1U) (AG) (B1G) (AU) (B3G) (B2U)
                 (B3U) (B1U) (B2G) (B1G) (AG) (B3G) (B1U) (AG)
                 (AU) (B2U) (B1U) (B3G) (B3U) (B2G) (AG) (B2U)
                 (B3U) (B1U) (AG) (B3G) (B1G) (B2G) (AU) (AG) (B1U)
                 (B1G) (B2U) (AU) (B2U) (B3U) (B1U) (B3G) (B1G)
                 (AU) (B3U) (AG) (B2G) (B2G) (B2U) (B1U) (B3G)
                 (B2U) (B3U) (B2G) (AG) (B3G) (B1G) (B2U) (AU)
                 (B3G) (B1U) (AG) (B1U) (B3G) (AG) (B2U) (B1U)
                 (AG) (B3G) (B1U)
 The electronic state is 1-AG.
 Alpha  occ. eigenvalues --  -19.24112 -19.24112 -19.24111 -19.24111 -14.60901
 Alpha  occ. eigenvalues --  -14.60898  -1.32316  -1.29704  -1.16464  -1.15039
 Alpha  occ. eigenvalues --   -0.75949  -0.65950  -0.63504  -0.61828  -0.58802
 Alpha  occ. eigenvalues --   -0.58169  -0.57827  -0.51023  -0.40352  -0.39787
 Alpha  occ. eigenvalues --   -0.38872  -0.36154  -0.32459
 Alpha virt. eigenvalues --   -0.13290  -0.10114  -0.08526   0.08200   0.14555
 Alpha virt. eigenvalues --    0.16278   0.18905   0.20486   0.24490   0.25296
 Alpha virt. eigenvalues --    0.28604   0.31276   0.32154   0.32265   0.33687
 Alpha virt. eigenvalues --    0.34581   0.37548   0.40780   0.40834   0.41457
 Alpha virt. eigenvalues --    0.42863   0.43116   0.45944   0.49776   0.49879
 Alpha virt. eigenvalues --    0.59168   0.59297   0.64624   0.84766   0.85378
 Alpha virt. eigenvalues --    0.87250   0.91499   1.05308   1.06393   1.14167
 Alpha virt. eigenvalues --    1.14817   1.16150   1.37010   1.38229   1.42278
 Alpha virt. eigenvalues --    1.42809   1.44086   1.44090   1.46628   1.53016
 Alpha virt. eigenvalues --    1.55325   1.60515   1.60974   1.61769   1.69881
 Alpha virt. eigenvalues --    1.77729   1.78469   1.85199   1.86878   1.87457
 Alpha virt. eigenvalues --    1.89358   1.91522   1.92831   1.96879   2.00136
 Alpha virt. eigenvalues --    2.08441   2.09128   2.10705   2.15469   2.19245
 Alpha virt. eigenvalues --    2.28921   2.34063   2.38339   2.40991   2.42117
 Alpha virt. eigenvalues --    2.44042   2.51895   2.57147   2.66753   2.70816
 Alpha virt. eigenvalues --    2.77231   2.85136   2.90603   2.93450   3.07593
 Alpha virt. eigenvalues --    3.12059   3.25428   3.29819   3.43999   3.49294
 Alpha virt. eigenvalues --    3.49437   3.57167   3.62285   3.74660   3.77888
 Alpha virt. eigenvalues --    3.83772   3.85169   3.89895   3.90683   3.90820
 Alpha virt. eigenvalues --    3.91729   3.92246   3.97381   4.01263   4.12319
 Alpha virt. eigenvalues --    4.16021   4.19309   4.24023   4.36066   4.37464
 Alpha virt. eigenvalues --    4.39873   4.46750   4.53748   4.57657   4.59412
 Alpha virt. eigenvalues --    4.66114   4.73766   4.76057   4.85387   4.91100
 Alpha virt. eigenvalues --    4.92758   4.96541   5.09604   5.18320   5.19571
 Alpha virt. eigenvalues --    5.24776   5.39293   5.73915   5.77212   5.77332
 Alpha virt. eigenvalues --    5.86746   5.87370   5.88022   5.91837   5.95078
 Alpha virt. eigenvalues --    5.95502   5.98134   5.99535   5.99611   6.05177
 Alpha virt. eigenvalues --    6.06601   6.13321   6.19484   6.21299   6.34900
 Alpha virt. eigenvalues --    6.36990   6.39509   6.40484   6.40492   6.44926
 Alpha virt. eigenvalues --    6.48441   6.58325   6.63448   6.70208   6.85081
 Alpha virt. eigenvalues --    6.93495   7.22374   7.36221   7.42538   7.67092
 Alpha virt. eigenvalues --    7.77742   9.25146
          Condensed to atoms (all electrons):
               1          2          3          4          5          6
     1  N    5.859270   0.163541   0.364109   0.364109  -0.091687  -0.091687
     2  N    0.163541   5.859270  -0.091687  -0.091687   0.364109   0.364109
     3  O    0.364109  -0.091687   8.006666  -0.111712   0.035868   0.012928
     4  O    0.364109  -0.091687  -0.111712   8.006666   0.012928   0.035868
     5  O   -0.091687   0.364109   0.035868   0.012928   8.006666  -0.111712
     6  O   -0.091687   0.364109   0.012928   0.035868  -0.111712   8.006666
 Mulliken charges:
               1
     1  N    0.432345
     2  N    0.432345
     3  O   -0.216173
     4  O   -0.216173
     5  O   -0.216173
     6  O   -0.216173
 Sum of Mulliken charges =   0.00000
 Mulliken charges with hydrogens summed into heavy atoms:
               1
     1  N    0.432345
     2  N    0.432345
     3  O   -0.216173
     4  O   -0.216173
     5  O   -0.216173
     6  O   -0.216173
 Electronic spatial extent (au):  <R**2>=            465.4981
 Charge=              0.0000 electrons
 Dipole moment (field-independent basis, Debye):
    X=              0.0000    Y=              0.0000    Z=             -0.0000  Tot=              0.0000
 Quadrupole moment (field-independent basis, Debye-Ang):
   XX=            -29.4957   YY=            -36.5404   ZZ=            -34.6592
   XY=             -0.0000   XZ=             -0.0000   YZ=              0.0000
 Traceless Quadrupole moment (field-independent basis, Debye-Ang):
   XX=              4.0694   YY=             -2.9753   ZZ=             -1.0941
   XY=             -0.0000   XZ=             -0.0000   YZ=              0.0000
 Octapole moment (field-independent basis, Debye-Ang**2):
  XXX=              0.0000  YYY=             -0.0000  ZZZ=              0.0000  XYY=              0.0000
  XXY=             -0.0000  XXZ=              0.0000  XZZ=              0.0000  YZZ=             -0.0000
  YYZ=             -0.0000  XYZ=              0.0000
 Hexadecapole moment (field-independent basis, Debye-Ang**3):
 XXXX=            -22.7284 YYYY=           -183.4764 ZZZZ=           -325.0315 XXXY=             -0.0000
 XXXZ=              0.0000 YYYX=             -0.0000 YYYZ=              0.0000 ZZZX=              0.0000
 ZZZY=              0.0000 XXYY=            -33.5592 XXZZ=            -53.7940 YYZZ=            -89.4710
 XXYZ=              0.0000 YYXZ=              0.0000 ZZXY=             -0.0000
 N-N= 2.363102493598D+02 E-N=-1.438792180301D+03  KE= 4.091821542919D+02
 Symmetry AG   KE= 1.225077712494D+02
 Symmetry B1G  KE= 4.948074168211D+00
 Symmetry B2G  KE= 4.091625290009D+00
 Symmetry B3G  KE= 7.542226217251D+01
 Symmetry AU   KE= 5.140126618316D+00
 Symmetry B1U  KE= 1.189260088046D+02
 Symmetry B2U  KE= 7.445579408383D+01
 Symmetry B3U  KE= 3.690491905038D+00
 Calling FoFJK, ICntrl=      2127 FMM=F ISym2X=1 I1Cent= 0 IOpClX= 0 NMat=1 NMatS=1 NMatT=0.
 ***** Axes restored to original set *****
 -------------------------------------------------------------------
 Center     Atomic                   Forces (Hartrees/Bohr)
 Number     Number              X              Y              Z
 -------------------------------------------------------------------
      1        7          -0.000000000    0.000000000    0.002471683
      2        7          -0.000000000    0.000000000   -0.002471683
      3        8           0.000000000   -0.002897640   -0.001701309
      4        8           0.000000000    0.002897640   -0.001701309
      5        8           0.000000000   -0.002897640    0.001701309
      6        8           0.000000000    0.002897640    0.001701309
 -------------------------------------------------------------------
 Cartesian Forces:  Max     0.002897640 RMS     0.001785458

 GradGradGradGradGradGradGradGradGradGradGradGradGradGradGradGradGradGrad
 Berny optimization.
 FormGI is forming the generalized inverse of G from B-inverse, IUseBI=4.
 Internal  Forces:  Max     0.003329784 RMS     0.001762217
 Search for a local minimum.
 Step number   1 out of a maximum of   25
 All quantities printed in internal units (Hartrees-Bohrs-Radians)
 Mixed Optimization -- RFO/linear search
 Second derivative matrix not updated -- first step.
 The second derivative matrix:
                          R1        R2        R3        R4        R5
           R1           0.13580
           R2           0.00000   1.11469
           R3           0.00000   0.00000   1.11469
           R4           0.00000   0.00000   0.00000   1.11469
           R5           0.00000   0.00000   0.00000   0.00000   1.11469
           A1           0.00000   0.00000   0.00000   0.00000   0.00000
           A2           0.00000   0.00000   0.00000   0.00000   0.00000
           A3           0.00000   0.00000   0.00000   0.00000   0.00000
           A4           0.00000   0.00000   0.00000   0.00000   0.00000
           A5           0.00000   0.00000   0.00000   0.00000   0.00000
           A6           0.00000   0.00000   0.00000   0.00000   0.00000
           D1           0.00000   0.00000   0.00000   0.00000   0.00000
           D2           0.00000   0.00000   0.00000   0.00000   0.00000
           D3           0.00000   0.00000   0.00000   0.00000   0.00000
           D4           0.00000   0.00000   0.00000   0.00000   0.00000
                          A1        A2        A3        A4        A5
           A1           0.25000
           A2           0.00000   0.25000
           A3           0.00000   0.00000   0.25000
           A4           0.00000   0.00000   0.00000   0.25000
           A5           0.00000   0.00000   0.00000   0.00000   0.25000
           A6           0.00000   0.00000   0.00000   0.00000   0.00000
           D1           0.00000   0.00000   0.00000   0.00000   0.00000
           D2           0.00000   0.00000   0.00000   0.00000   0.00000
           D3           0.00000   0.00000   0.00000   0.00000   0.00000
           D4           0.00000   0.00000   0.00000   0.00000   0.00000
                          A6        D1        D2        D3        D4
           A6           0.25000
           D1           0.00000   0.00230
           D2           0.00000   0.00000   0.00230
           D3           0.00000   0.00000   0.00000   0.00230
           D4           0.00000   0.00000   0.00000   0.00000   0.00230
 ITU=  0
     Eigenvalues ---    0.00230   0.00230   0.00230   0.13580   0.25000
     Eigenvalues ---    0.25000   0.25000   0.25000   1.11469   1.11469
     Eigenvalues ---    1.11469   1.11469
 RFO step:  Lambda=-5.16270160D-05 EMin= 2.30000000D-03
 Linear search not attempted -- first point.
 Iteration  1 RMS(Cart)=  0.00408938 RMS(Int)=  0.00000192
 Iteration  2 RMS(Cart)=  0.00000225 RMS(Int)=  0.00000000
 Iteration  3 RMS(Cart)=  0.00000000 RMS(Int)=  0.00000000
 ClnCor:  largest displacement from symmetrization is 4.65D-12 for atom     2.
 Variable       Old X    -DE/DX   Delta X   Delta X   Delta X     New X
                                 (Linear)    (Quad)   (Total)
    R1        3.42232  -0.00093   0.00000  -0.00685  -0.00685   3.41546
    R2        2.24368  -0.00333   0.00000  -0.00299  -0.00299   2.24070
    R3        2.24368  -0.00333   0.00000  -0.00299  -0.00299   2.24070
    R4        2.24368  -0.00333   0.00000  -0.00299  -0.00299   2.24070
    R5        2.24368  -0.00333   0.00000  -0.00299  -0.00299   2.24070
    A1        1.96711  -0.00034   0.00000  -0.00135  -0.00135   1.96576
    A2        1.96711  -0.00034   0.00000  -0.00135  -0.00135   1.96576
    A3        2.34897   0.00067   0.00000   0.00270   0.00270   2.35166
    A4        1.96711  -0.00034   0.00000  -0.00135  -0.00135   1.96576
    A5        1.96711  -0.00034   0.00000  -0.00135  -0.00135   1.96576
    A6        2.34897   0.00067   0.00000   0.00270   0.00270   2.35166
    D1        0.00000  -0.00000   0.00000  -0.00000  -0.00000   0.00000
    D2        3.14159  -0.00000   0.00000  -0.00000   0.00000   3.14159
    D3        3.14159   0.00000   0.00000   0.00000   0.00000   3.14159
    D4        0.00000  -0.00000   0.00000  -0.00000   0.00000   0.00000
         Item               Value     Threshold  Converged?
 Maximum Force            0.003330     0.000450     NO 
 RMS     Force            0.001762     0.000300     NO 
 Maximum Displacement     0.007368     0.001800     NO 
 RMS     Displacement     0.004089     0.001200     NO 
 Predicted change in Energy=-2.581351D-05
 GradGradGradGradGradGradGradGradGradGradGradGradGradGradGradGradGradGrad

                          Input orientation:                          
 ---------------------------------------------------------------------
 Center     Atomic      Atomic             Coordinates (Angstroms)
 Number     Number       Type             X           Y           Z
 ---------------------------------------------------------------------
      1          7           0       -0.000000    0.000000    0.903693
      2          7           0        0.000000    0.000000   -0.903693
      3          8           0       -0.000000    1.094437    1.359931
      4          8           0       -0.000000   -1.094437    1.359931
      5          8           0        0.000000    1.094437   -1.359931
      6          8           0        0.000000   -1.094437   -1.359931
 ---------------------------------------------------------------------
                    Distance matrix (angstroms):
                    1          2          3          4          5
     1  N    0.000000
     2  N    1.807386   0.000000
     3  O    1.185726   2.514316   0.000000
     4  O    1.185726   2.514316   2.188874   0.000000
     5  O    2.514316   1.185726   2.719862   3.491249   0.000000
     6  O    2.514316   1.185726   3.491249   2.719862   2.188874
                    6
     6  O    0.000000
 Stoichiometry    N2O4
 Framework group  D2H[C2"(N.N),SG(O4)]
 Deg. of freedom     3
 Full point group                 D2H     NOp   8
 Largest Abelian subgroup         D2H     NOp   8
 Largest concise Abelian subgroup D2      NOp   4
                         Standard orientation:                         
 ---------------------------------------------------------------------
 Center     Atomic      Atomic             Coordinates (Angstroms)
 Number     Number       Type             X           Y           Z
 ---------------------------------------------------------------------
      1          7           0        0.000000   -0.000000    0.903693
      2          7           0        0.000000    0.000000   -0.903693
      3          8           0        0.000000    1.094437    1.359931
      4          8           0       -0.000000   -1.094437    1.359931
      5          8           0        0.000000    1.094437   -1.359931
      6          8           0       -0.000000   -1.094437   -1.359931
 ---------------------------------------------------------------------
 Rotational constants (GHZ):           6.5946789           3.5792648           2.3200543
 Basis read from rwf:  (5D, 7F)
 There are    40 symmetry adapted cartesian basis functions of AG  symmetry.
 There are    14 symmetry adapted cartesian basis functions of B1G symmetry.
 There are    19 symmetry adapted cartesian basis functions of B2G symmetry.
 There are    32 symmetry adapted cartesian basis functions of B3G symmetry.
 There are    14 symmetry adapted cartesian basis functions of AU  symmetry.
 There are    40 symmetry adapted cartesian basis functions of B1U symmetry.
 There are    32 symmetry adapted cartesian basis functions of B2U symmetry.
 There are    19 symmetry adapted cartesian basis functions of B3U symmetry.
 There are    33 symmetry adapted basis functions of AG  symmetry.
 There are    13 symmetry adapted basis functions of B1G symmetry.
 There are    17 symmetry adapted basis functions of B2G symmetry.
 There are    27 symmetry adapted basis functions of B3G symmetry.
 There are    13 symmetry adapted basis functions of AU  symmetry.
 There are    33 symmetry adapted basis functions of B1U symmetry.
 There are    27 symmetry adapted basis functions of B2U symmetry.
 There are    17 symmetry adapted basis functions of B3U symmetry.
   180 basis functions,   306 primitive gaussians,   210 cartesian basis functions
    23 alpha electrons       23 beta electrons
       nuclear repulsion energy       236.7096787172 Hartrees.
 NAtoms=    6 NActive=    6 NUniq=    2 SFac= 4.00D+00 NAtFMM=   60 NAOKFM=F Big=F
 Integral buffers will be    131072 words long.
 Raffenetti 2 integral format.
 Two-electron integral symmetry is turned on.
 One-electron integrals computed using PRISM.
 NBasis=   180 RedAO= T EigKep=  6.94D-04  NBF=    33    13    17    27    13    33    27    17
 NBsUse=   180 1.00D-06 EigRej= -1.00D+00 NBFU=    33    13    17    27    13    33    27    17
 Initial guess from the checkpoint file:  "/wrk/irikura/Gau-7397.chk"
 B after Tr=    -0.000000    0.000000    0.000000
         Rot=    1.000000   -0.000000   -0.000000    0.000000 Ang=   0.00 deg.
 Initial guess orbital symmetries:
       Occupied  (B3G) (B2U) (AG) (B1U) (AG) (B1U) (AG) (B1U) (B2U)
                 (B3G) (AG) (B1U) (AG) (B3U) (B2U) (B2G) (B3G)
                 (B1U) (B2U) (B1G) (AU) (B3G) (AG)
       Virtual   (B3U) (B1U) (B2G) (AG) (B1U) (B2U) (B3U) (B3G)
                 (AG) (B1U) (B2G) (AG) (B1G) (AG) (B1U) (B2U) (B2U)
                 (AU) (B3U) (B1U) (B2U) (B3G) (AG) (B3G) (B2G)
                 (B1U) (B3G) (AG) (B1U) (B2U) (B3U) (B3G) (AG)
                 (B1G) (B2U) (B2G) (AU) (B1U) (AG) (B2U) (B3G)
                 (AU) (B1G) (B3U) (B3G) (B1U) (AG) (B3U) (B2G)
                 (B1U) (AG) (B2U) (B2G) (B3G) (AG) (B1U) (B2U)
                 (B3U) (B2G) (B1G) (B1U) (AU) (AG) (B3G) (B2U)
                 (B3G) (B2U) (B1G) (B3U) (B2G) (AG) (B1U) (AU)
                 (B3G) (B1U) (AG) (AG) (B2U) (B1U) (B3G) (B3U)
                 (B1U) (AG) (B1G) (AU) (B2U) (B3G) (B2G) (B3U)
                 (B2G) (B2U) (B1U) (AG) (B1G) (AU) (B3G) (B2U)
                 (B3U) (B1U) (B2G) (B1G) (AG) (B3G) (B1U) (AG)
                 (AU) (B2U) (B1U) (B3G) (B3U) (B2G) (AG) (B2U)
                 (B3U) (B1U) (AG) (B3G) (B1G) (B2G) (AU) (AG) (B1U)
                 (B1G) (B2U) (AU) (B2U) (B3U) (B1U) (B3G) (B1G)
                 (AU) (B3U) (AG) (B2G) (B2G) (B2U) (B1U) (B3G)
                 (B2U) (B3U) (B2G) (AG) (B3G) (B1G) (B2U) (AU)
                 (B3G) (B1U) (AG) (B1U) (B3G) (AG) (B2U) (B1U)
                 (AG) (B3G) (B1U)
 Keep R1 ints in memory in symmetry-blocked form, NReq=149558585.
 Requested convergence on RMS density matrix=1.00D-08 within 128 cycles.
 Requested convergence on MAX density matrix=1.00D-06.
 Requested convergence on             energy=1.00D-06.
 No special actions if energy rises.
 SCF Done:  E(RB3LYP) =  -410.349526918     A.U. after    7 cycles
            NFock=  7  Conv=0.23D-08     -V/T= 2.0028
 Calling FoFJK, ICntrl=      2127 FMM=F ISym2X=1 I1Cent= 0 IOpClX= 0 NMat=1 NMatS=1 NMatT=0.
 ***** Axes restored to original set *****
 -------------------------------------------------------------------
 Center     Atomic                   Forces (Hartrees/Bohr)
 Number     Number              X              Y              Z
 -------------------------------------------------------------------
      1        7          -0.000000000    0.000000000    0.000298681
      2        7          -0.000000000   -0.000000000   -0.000298681
      3        8           0.000000000   -0.000616015   -0.000229421
      4        8           0.000000000    0.000616015   -0.000229421
      5        8           0.000000000   -0.000616015    0.000229421
      6        8           0.000000000    0.000616015    0.000229421
 -------------------------------------------------------------------
 Cartesian Forces:  Max     0.000616015 RMS     0.000325479

 GradGradGradGradGradGradGradGradGradGradGradGradGradGradGradGradGradGrad
 Berny optimization.
 Using GEDIIS/GDIIS optimizer.
 FormGI is forming the generalized inverse of G from B-inverse, IUseBI=4.
 Internal  Forces:  Max     0.000656864 RMS     0.000342131
 Search for a local minimum.
 Step number   2 out of a maximum of   25
 All quantities printed in internal units (Hartrees-Bohrs-Radians)
 Mixed Optimization -- En-DIIS/RFO-DIIS
 Update second derivatives using D2CorX and points    1    2
 DE= -3.02D-05 DEPred=-2.58D-05 R= 1.17D+00
 TightC=F SS=  1.41D+00  RLast= 1.02D-02 DXNew= 5.0454D-01 3.0664D-02
 Trust test= 1.17D+00 RLast= 1.02D-02 DXMaxT set to 3.00D-01
 The second derivative matrix:
                          R1        R2        R3        R4        R5
           R1           0.13284
           R2          -0.01210   1.06613
           R3          -0.01210  -0.04856   1.06613
           R4          -0.01210  -0.04856  -0.04856   1.06613
           R5          -0.01210  -0.04856  -0.04856  -0.04856   1.06613
           A1           0.00031   0.00040   0.00040   0.00040   0.00040
           A2           0.00031   0.00040   0.00040   0.00040   0.00040
           A3          -0.00061  -0.00079  -0.00079  -0.00079  -0.00079
           A4           0.00031   0.00040   0.00040   0.00040   0.00040
           A5           0.00031   0.00040   0.00040   0.00040   0.00040
           A6          -0.00061  -0.00079  -0.00079  -0.00079  -0.00079
           D1           0.00000   0.00000   0.00000   0.00000   0.00000
           D2          -0.00000  -0.00000  -0.00000  -0.00000  -0.00000
           D3           0.00000   0.00000   0.00000   0.00000   0.00000
           D4          -0.00000  -0.00000  -0.00000  -0.00000  -0.00000
                          A1        A2        A3        A4        A5
           A1           0.25075
           A2           0.00075   0.25075
           A3          -0.00150  -0.00150   0.25299
           A4           0.00075   0.00075  -0.00150   0.25075
           A5           0.00075   0.00075  -0.00150   0.00075   0.25075
           A6          -0.00150  -0.00150   0.00299  -0.00150  -0.00150
           D1           0.00000   0.00000  -0.00000   0.00000   0.00000
           D2          -0.00000  -0.00000   0.00000  -0.00000  -0.00000
           D3           0.00000   0.00000  -0.00000   0.00000   0.00000
           D4          -0.00000  -0.00000   0.00000  -0.00000  -0.00000
                          A6        D1        D2        D3        D4
           A6           0.25299
           D1          -0.00000   0.00230
           D2           0.00000  -0.00000   0.00230
           D3          -0.00000   0.00000  -0.00000   0.00230
           D4           0.00000  -0.00000   0.00000  -0.00000   0.00230
 ITU=  1  0
 Use linear search instead of GDIIS.
     Eigenvalues ---    0.00230   0.00230   0.00230   0.13209   0.25000
     Eigenvalues ---    0.25000   0.25000   0.25898   0.92119   1.11469
     Eigenvalues ---    1.11469   1.11469
 RFO step:  Lambda=-4.49315603D-07 EMin= 2.30000000D-03
 Quartic linear search produced a step of  0.19927.
 Iteration  1 RMS(Cart)=  0.00063246 RMS(Int)=  0.00000002
 Iteration  2 RMS(Cart)=  0.00000003 RMS(Int)=  0.00000000
 ClnCor:  largest displacement from symmetrization is 4.03D-12 for atom     2.
 Variable       Old X    -DE/DX   Delta X   Delta X   Delta X     New X
                                 (Linear)    (Quad)   (Total)
    R1        3.41546  -0.00016  -0.00137  -0.00007  -0.00144   3.41403
    R2        2.24070  -0.00066  -0.00060  -0.00014  -0.00073   2.23997
    R3        2.24070  -0.00066  -0.00060  -0.00014  -0.00073   2.23997
    R4        2.24070  -0.00066  -0.00060  -0.00014  -0.00073   2.23997
    R5        2.24070  -0.00066  -0.00060  -0.00014  -0.00073   2.23997
    A1        1.96576   0.00002  -0.00027   0.00035   0.00008   1.96584
    A2        1.96576   0.00002  -0.00027   0.00035   0.00008   1.96584
    A3        2.35166  -0.00004   0.00054  -0.00070  -0.00017   2.35150
    A4        1.96576   0.00002  -0.00027   0.00035   0.00008   1.96584
    A5        1.96576   0.00002  -0.00027   0.00035   0.00008   1.96584
    A6        2.35166  -0.00004   0.00054  -0.00070  -0.00017   2.35150
    D1        0.00000  -0.00000   0.00000  -0.00000   0.00000   0.00000
    D2        3.14159  -0.00000   0.00000  -0.00000   0.00000   3.14159
    D3        3.14159   0.00000   0.00000   0.00000   0.00000   3.14159
    D4        0.00000  -0.00000   0.00000  -0.00000   0.00000   0.00000
         Item               Value     Threshold  Converged?
 Maximum Force            0.000657     0.000450     NO 
 RMS     Force            0.000342     0.000300     NO 
 Maximum Displacement     0.000828     0.001800     YES
 RMS     Displacement     0.000632     0.001200     YES
 Predicted change in Energy=-1.090476D-06
 GradGradGradGradGradGradGradGradGradGradGradGradGradGradGradGradGradGrad

                          Input orientation:                          
 ---------------------------------------------------------------------
 Center     Atomic      Atomic             Coordinates (Angstroms)
 Number     Number       Type             X           Y           Z
 ---------------------------------------------------------------------
      1          7           0       -0.000000    0.000000    0.903313
      2          7           0        0.000000   -0.000000   -0.903313
      3          8           0        0.000000    1.094042    1.359493
      4          8           0       -0.000000   -1.094042    1.359493
      5          8           0        0.000000    1.094042   -1.359493
      6          8           0       -0.000000   -1.094042   -1.359493
 ---------------------------------------------------------------------
                    Distance matrix (angstroms):
                    1          2          3          4          5
     1  N    0.000000
     2  N    1.806625   0.000000
     3  O    1.185339   2.513408   0.000000
     4  O    1.185339   2.513408   2.188085   0.000000
     5  O    2.513408   1.185339   2.718986   3.490072   0.000000
     6  O    2.513408   1.185339   3.490072   2.718986   2.188085
                    6
     6  O    0.000000
 Stoichiometry    N2O4
 Framework group  D2H[C2"(N.N),SG(O4)]
 Deg. of freedom     3
 Full point group                 D2H     NOp   8
 Largest Abelian subgroup         D2H     NOp   8
 Largest concise Abelian subgroup D2      NOp   4
                         Standard orientation:                         
 ---------------------------------------------------------------------
 Center     Atomic      Atomic             Coordinates (Angstroms)
 Number     Number       Type             X           Y           Z
 ---------------------------------------------------------------------
      1          7           0        0.000000    0.000000    0.903313
      2          7           0        0.000000    0.000000   -0.903313
      3          8           0       -0.000000    1.094042    1.359493
      4          8           0       -0.000000   -1.094042    1.359493
      5          8           0        0.000000    1.094042   -1.359493
      6          8           0       -0.000000   -1.094042   -1.359493
 ---------------------------------------------------------------------
 Rotational constants (GHZ):           6.5994372           3.5816871           2.3216610
 Basis read from rwf:  (5D, 7F)
 There are    40 symmetry adapted cartesian basis functions of AG  symmetry.
 There are    14 symmetry adapted cartesian basis functions of B1G symmetry.
 There are    19 symmetry adapted cartesian basis functions of B2G symmetry.
 There are    32 symmetry adapted cartesian basis functions of B3G symmetry.
 There are    14 symmetry adapted cartesian basis functions of AU  symmetry.
 There are    40 symmetry adapted cartesian basis functions of B1U symmetry.
 There are    32 symmetry adapted cartesian basis functions of B2U symmetry.
 There are    19 symmetry adapted cartesian basis functions of B3U symmetry.
 There are    33 symmetry adapted basis functions of AG  symmetry.
 There are    13 symmetry adapted basis functions of B1G symmetry.
 There are    17 symmetry adapted basis functions of B2G symmetry.
 There are    27 symmetry adapted basis functions of B3G symmetry.
 There are    13 symmetry adapted basis functions of AU  symmetry.
 There are    33 symmetry adapted basis functions of B1U symmetry.
 There are    27 symmetry adapted basis functions of B2U symmetry.
 There are    17 symmetry adapted basis functions of B3U symmetry.
   180 basis functions,   306 primitive gaussians,   210 cartesian basis functions
    23 alpha electrons       23 beta electrons
       nuclear repulsion energy       236.7911019945 Hartrees.
 NAtoms=    6 NActive=    6 NUniq=    2 SFac= 4.00D+00 NAtFMM=   60 NAOKFM=F Big=F
 Integral buffers will be    131072 words long.
 Raffenetti 2 integral format.
 Two-electron integral symmetry is turned on.
 One-electron integrals computed using PRISM.
 NBasis=   180 RedAO= T EigKep=  6.93D-04  NBF=    33    13    17    27    13    33    27    17
 NBsUse=   180 1.00D-06 EigRej= -1.00D+00 NBFU=    33    13    17    27    13    33    27    17
 Initial guess from the checkpoint file:  "/wrk/irikura/Gau-7397.chk"
 B after Tr=     0.000000    0.000000    0.000000
         Rot=    1.000000    0.000000    0.000000    0.000000 Ang=   0.00 deg.
 Initial guess orbital symmetries:
       Occupied  (B3G) (B2U) (AG) (B1U) (AG) (B1U) (AG) (B1U) (B2U)
                 (B3G) (AG) (B1U) (AG) (B3U) (B2U) (B2G) (B3G)
                 (B1U) (B2U) (B1G) (AU) (B3G) (AG)
       Virtual   (B3U) (B1U) (B2G) (AG) (B1U) (B2U) (B3U) (B3G)
                 (AG) (B1U) (B2G) (AG) (B1G) (AG) (B1U) (B2U) (B2U)
                 (AU) (B3U) (B1U) (B2U) (B3G) (AG) (B3G) (B2G)
                 (B1U) (B3G) (AG) (B1U) (B2U) (B3U) (B3G) (AG)
                 (B1G) (B2U) (B2G) (AU) (B1U) (AG) (B2U) (B3G)
                 (B1G) (AU) (B3U) (B3G) (B1U) (AG) (B3U) (B2G)
                 (B1U) (AG) (B2U) (B2G) (B3G) (AG) (B1U) (B2U)
                 (B3U) (B2G) (B1G) (B1U) (AU) (AG) (B3G) (B2U)
                 (B3G) (B2U) (B1G) (B3U) (B2G) (AG) (B1U) (AU)
                 (B3G) (B1U) (AG) (AG) (B2U) (B1U) (B3G) (B3U)
                 (B1U) (AG) (B1G) (AU) (B2U) (B3G) (B2G) (B3U)
                 (B2G) (B2U) (B1U) (AG) (B1G) (AU) (B3G) (B2U)
                 (B3U) (B1U) (B2G) (B1G) (AG) (B3G) (B1U) (AG)
                 (AU) (B2U) (B1U) (B3G) (B3U) (B2G) (AG) (B2U)
                 (B3U) (B1U) (AG) (B3G) (B1G) (B2G) (AU) (AG) (B1U)
                 (B1G) (B2U) (AU) (B2U) (B3U) (B1U) (B3G) (B1G)
                 (AU) (B3U) (AG) (B2G) (B2G) (B2U) (B1U) (B3G)
                 (B2U) (B3U) (B2G) (AG) (B1G) (B3G) (B2U) (AU)
                 (B3G) (B1U) (AG) (B1U) (B3G) (AG) (B2U) (B1U)
                 (AG) (B3G) (B1U)
 Keep R1 ints in memory in symmetry-blocked form, NReq=149558585.
 Requested convergence on RMS density matrix=1.00D-08 within 128 cycles.
 Requested convergence on MAX density matrix=1.00D-06.
 Requested convergence on             energy=1.00D-06.
 No special actions if energy rises.
 SCF Done:  E(RB3LYP) =  -410.349527959     A.U. after    6 cycles
            NFock=  6  Conv=0.53D-08     -V/T= 2.0028
 Calling FoFJK, ICntrl=      2127 FMM=F ISym2X=1 I1Cent= 0 IOpClX= 0 NMat=1 NMatS=1 NMatT=0.
 ***** Axes restored to original set *****
 -------------------------------------------------------------------
 Center     Atomic                   Forces (Hartrees/Bohr)
 Number     Number              X              Y              Z
 -------------------------------------------------------------------
      1        7          -0.000000000   -0.000000000   -0.000009972
      2        7          -0.000000000   -0.000000000    0.000009972
      3        8           0.000000000    0.000041272   -0.000006561
      4        8           0.000000000   -0.000041272   -0.000006561
      5        8           0.000000000    0.000041272    0.000006561
      6        8           0.000000000   -0.000041272    0.000006561
 -------------------------------------------------------------------
 Cartesian Forces:  Max     0.000041272 RMS     0.000019978

 GradGradGradGradGradGradGradGradGradGradGradGradGradGradGradGradGradGrad
 Berny optimization.
 Using GEDIIS/GDIIS optimizer.
 FormGI is forming the generalized inverse of G from B-inverse, IUseBI=4.
 Internal  Forces:  Max     0.000035568 RMS     0.000024240
 Search for a local minimum.
 Step number   3 out of a maximum of   25
 All quantities printed in internal units (Hartrees-Bohrs-Radians)
 Mixed Optimization -- En-DIIS/RFO-DIIS
 Swapping is turned off.
 Update second derivatives using D2CorX and points    1    2    3
 DE= -1.04D-06 DEPred=-1.09D-06 R= 9.55D-01
 TightC=F SS=  1.41D+00  RLast= 2.07D-03 DXNew= 5.0454D-01 6.2075D-03
 Trust test= 9.55D-01 RLast= 2.07D-03 DXMaxT set to 3.00D-01
 The second derivative matrix:
                          R1        R2        R3        R4        R5
           R1           0.12988
           R2          -0.01716   1.07991
           R3          -0.01716  -0.03478   1.07991
           R4          -0.01716  -0.03478  -0.03478   1.07991
           R5          -0.01716  -0.03478  -0.03478  -0.03478   1.07991
           A1          -0.00062  -0.00437  -0.00437  -0.00437  -0.00437
           A2          -0.00062  -0.00437  -0.00437  -0.00437  -0.00437
           A3           0.00124   0.00873   0.00873   0.00873   0.00873
           A4          -0.00062  -0.00437  -0.00437  -0.00437  -0.00437
           A5          -0.00062  -0.00437  -0.00437  -0.00437  -0.00437
           A6           0.00124   0.00873   0.00873   0.00873   0.00873
           D1          -0.00000  -0.00000  -0.00000  -0.00000  -0.00000
           D2          -0.00000  -0.00000  -0.00000  -0.00000  -0.00000
           D3           0.00000   0.00000   0.00000   0.00000   0.00000
           D4           0.00000   0.00000   0.00000   0.00000   0.00000
                          A1        A2        A3        A4        A5
           A1           0.25091
           A2           0.00091   0.25091
           A3          -0.00181  -0.00181   0.25363
           A4           0.00091   0.00091  -0.00181   0.25091
           A5           0.00091   0.00091  -0.00181   0.00091   0.25091
           A6          -0.00181  -0.00181   0.00363  -0.00181  -0.00181
           D1           0.00000   0.00000  -0.00000   0.00000   0.00000
           D2          -0.00000  -0.00000   0.00000  -0.00000  -0.00000
           D3           0.00000   0.00000  -0.00000   0.00000   0.00000
           D4          -0.00000  -0.00000   0.00000  -0.00000  -0.00000
                          A6        D1        D2        D3        D4
           A6           0.25363
           D1          -0.00000   0.00230
           D2           0.00000   0.00000   0.00230
           D3          -0.00000  -0.00000  -0.00000   0.00230
           D4           0.00000  -0.00000  -0.00000   0.00000   0.00230
 ITU=  1  1  0
     Eigenvalues ---    0.00230   0.00230   0.00230   0.12840   0.25000
     Eigenvalues ---    0.25000   0.25000   0.25971   0.97822   1.11469
     Eigenvalues ---    1.11469   1.11469
 En-DIIS/RFO-DIIS/Sim-DIIS IScMMF=       -3 using points:     3    2
 RFO step:  Lambda=-1.72140157D-08.
 DidBck=F Rises=F RFO-DIIS coefs:    1.02062   -0.02062
 Iteration  1 RMS(Cart)=  0.00011420 RMS(Int)=  0.00000000
 Iteration  2 RMS(Cart)=  0.00000000 RMS(Int)=  0.00000000
 ClnCor:  largest displacement from symmetrization is 4.02D-12 for atom     2.
 Variable       Old X    -DE/DX   Delta X   Delta X   Delta X     New X
                                 (Linear)    (Quad)   (Total)
    R1        3.41403  -0.00002  -0.00003  -0.00014  -0.00017   3.41386
    R2        2.23997   0.00004  -0.00002   0.00005   0.00003   2.24000
    R3        2.23997   0.00004  -0.00002   0.00005   0.00003   2.24000
    R4        2.23997   0.00004  -0.00002   0.00005   0.00003   2.24000
    R5        2.23997   0.00004  -0.00002   0.00005   0.00003   2.24000
    A1        1.96584  -0.00002   0.00000  -0.00006  -0.00006   1.96578
    A2        1.96584  -0.00002   0.00000  -0.00006  -0.00006   1.96578
    A3        2.35150   0.00003  -0.00000   0.00013   0.00012   2.35162
    A4        1.96584  -0.00002   0.00000  -0.00006  -0.00006   1.96578
    A5        1.96584  -0.00002   0.00000  -0.00006  -0.00006   1.96578
    A6        2.35150   0.00003  -0.00000   0.00013   0.00012   2.35162
    D1        0.00000  -0.00000   0.00000  -0.00000  -0.00000   0.00000
    D2        3.14159  -0.00000  -0.00000  -0.00000   0.00000   3.14159
    D3        3.14159   0.00000  -0.00000   0.00000   0.00000   3.14159
    D4        0.00000  -0.00000   0.00000  -0.00000   0.00000   0.00000
         Item               Value     Threshold  Converged?
 Maximum Force            0.000036     0.000450     YES
 RMS     Force            0.000024     0.000300     YES
 Maximum Displacement     0.000197     0.001800     YES
 RMS     Displacement     0.000114     0.001200     YES
 Predicted change in Energy=-1.007290D-08
 Optimization completed.
    -- Stationary point found.
                           ----------------------------
                           !   Optimized Parameters   !
                           ! (Angstroms and Degrees)  !
 --------------------------                            --------------------------
 ! Name  Definition              Value          Derivative Info.                !
 --------------------------------------------------------------------------------
 ! R1    R(1,2)                  1.8066         -DE/DX =    0.0                 !
 ! R2    R(1,3)                  1.1853         -DE/DX =    0.0                 !
 ! R3    R(1,4)                  1.1853         -DE/DX =    0.0                 !
 ! R4    R(2,5)                  1.1853         -DE/DX =    0.0                 !
 ! R5    R(2,6)                  1.1853         -DE/DX =    0.0                 !
 ! A1    A(2,1,3)              112.6345         -DE/DX =    0.0                 !
 ! A2    A(2,1,4)              112.6345         -DE/DX =    0.0                 !
 ! A3    A(3,1,4)              134.7309         -DE/DX =    0.0                 !
 ! A4    A(1,2,5)              112.6345         -DE/DX =    0.0                 !
 ! A5    A(1,2,6)              112.6345         -DE/DX =    0.0                 !
 ! A6    A(5,2,6)              134.7309         -DE/DX =    0.0                 !
 ! D1    D(3,1,2,5)              0.0            -DE/DX =    0.0                 !
 ! D2    D(3,1,2,6)            180.0            -DE/DX =    0.0                 !
 ! D3    D(4,1,2,5)            180.0            -DE/DX =    0.0                 !
 ! D4    D(4,1,2,6)              0.0            -DE/DX =    0.0                 !
 --------------------------------------------------------------------------------
 GradGradGradGradGradGradGradGradGradGradGradGradGradGradGradGradGradGrad

                          Input orientation:                          
 ---------------------------------------------------------------------
 Center     Atomic      Atomic             Coordinates (Angstroms)
 Number     Number       Type             X           Y           Z
 ---------------------------------------------------------------------
      1          7           0       -0.000000    0.000000    0.903313
      2          7           0        0.000000   -0.000000   -0.903313
      3          8           0        0.000000    1.094042    1.359493
      4          8           0       -0.000000   -1.094042    1.359493
      5          8           0        0.000000    1.094042   -1.359493
      6          8           0       -0.000000   -1.094042   -1.359493
 ---------------------------------------------------------------------
                    Distance matrix (angstroms):
                    1          2          3          4          5
     1  N    0.000000
     2  N    1.806625   0.000000
     3  O    1.185339   2.513408   0.000000
     4  O    1.185339   2.513408   2.188085   0.000000
     5  O    2.513408   1.185339   2.718986   3.490072   0.000000
     6  O    2.513408   1.185339   3.490072   2.718986   2.188085
                    6
     6  O    0.000000
 Stoichiometry    N2O4
 Framework group  D2H[C2"(N.N),SG(O4)]
 Deg. of freedom     3
 Full point group                 D2H     NOp   8
 Largest Abelian subgroup         D2H     NOp   8
 Largest concise Abelian subgroup D2      NOp   4
                         Standard orientation:                         
 ---------------------------------------------------------------------
 Center     Atomic      Atomic             Coordinates (Angstroms)
 Number     Number       Type             X           Y           Z
 ---------------------------------------------------------------------
      1          7           0        0.000000    0.000000    0.903313
      2          7           0        0.000000    0.000000   -0.903313
      3          8           0       -0.000000    1.094042    1.359493
      4          8           0       -0.000000   -1.094042    1.359493
      5          8           0        0.000000    1.094042   -1.359493
      6          8           0       -0.000000   -1.094042   -1.359493
 ---------------------------------------------------------------------
 Rotational constants (GHZ):           6.5994372           3.5816871           2.3216610

 **********************************************************************

            Population analysis using the SCF Density.

 **********************************************************************

 Orbital symmetries:
       Occupied  (B3G) (B2U) (AG) (B1U) (AG) (B1U) (AG) (B1U) (B2U)
                 (B3G) (AG) (B1U) (AG) (B3U) (B2U) (B2G) (B3G)
                 (B1U) (B2U) (B1G) (AU) (B3G) (AG)
       Virtual   (B3U) (B1U) (B2G) (AG) (B1U) (B2U) (B3U) (B3G)
                 (AG) (B1U) (B2G) (AG) (B1G) (AG) (B1U) (B2U) (B2U)
                 (AU) (B3U) (B1U) (B2U) (B3G) (AG) (B3G) (B2G)
                 (B1U) (B3G) (AG) (B1U) (B2U) (B3U) (B3G) (AG)
                 (B1G) (B2U) (B2G) (AU) (B1U) (AG) (B2U) (B3G)
                 (B1G) (AU) (B3U) (B3G) (B1U) (AG) (B3U) (B2G)
                 (B1U) (AG) (B2U) (B2G) (B3G) (AG) (B1U) (B2U)
                 (B3U) (B2G) (B1G) (B1U) (AU) (AG) (B3G) (B2U)
                 (B3G) (B2U) (B1G) (B3U) (B2G) (AG) (B1U) (AU)
                 (B3G) (B1U) (AG) (AG) (B2U) (B1U) (B3G) (B3U)
                 (B1U) (AG) (B1G) (AU) (B2U) (B3G) (B2G) (B3U)
                 (B2G) (B2U) (B1U) (AG) (B1G) (AU) (B3G) (B2U)
                 (B3U) (B1U) (B2G) (B1G) (AG) (B3G) (B1U) (AG)
                 (AU) (B2U) (B1U) (B3G) (B3U) (B2G) (AG) (B2U)
                 (B3U) (B1U) (AG) (B3G) (B1G) (B2G) (AU) (AG) (B1U)
                 (B1G) (B2U) (AU) (B2U) (B3U) (B1U) (B3G) (B1G)
                 (AU) (B3U) (AG) (B2G) (B2G) (B2U) (B1U) (B3G)
                 (B2U) (B3U) (B2G) (B1G) (AG) (B3G) (B2U) (AU)
                 (B3G) (B1U) (AG) (B1U) (B3G) (AG) (B2U) (B1U)
                 (AG) (B3G) (B1U)
 The electronic state is 1-AG.
 Alpha  occ. eigenvalues --  -19.24067 -19.24067 -19.24066 -19.24065 -14.60881
 Alpha  occ. eigenvalues --  -14.60878  -1.32491  -1.29841  -1.16617  -1.15166
 Alpha  occ. eigenvalues --   -0.76022  -0.65888  -0.63553  -0.61951  -0.58819
 Alpha  occ. eigenvalues --   -0.58250  -0.57838  -0.51036  -0.40396  -0.39809
 Alpha  occ. eigenvalues --   -0.38877  -0.36132  -0.32423
 Alpha virt. eigenvalues --   -0.13206  -0.09865  -0.08399   0.08193   0.14608
 Alpha virt. eigenvalues --    0.16302   0.18892   0.20512   0.24613   0.25420
 Alpha virt. eigenvalues --    0.28593   0.31298   0.32149   0.32375   0.33688
 Alpha virt. eigenvalues --    0.34698   0.37575   0.40801   0.40881   0.41501
 Alpha virt. eigenvalues --    0.43125   0.43254   0.45874   0.49841   0.49917
 Alpha virt. eigenvalues --    0.59259   0.59574   0.64717   0.84825   0.85285
 Alpha virt. eigenvalues --    0.87125   0.91545   1.05431   1.06426   1.14018
 Alpha virt. eigenvalues --    1.14901   1.16362   1.37012   1.38421   1.42212
 Alpha virt. eigenvalues --    1.43184   1.44092   1.44119   1.46646   1.53039
 Alpha virt. eigenvalues --    1.55652   1.60820   1.61078   1.61956   1.69974
 Alpha virt. eigenvalues --    1.77669   1.78634   1.85362   1.86826   1.87486
 Alpha virt. eigenvalues --    1.89531   1.91603   1.92856   1.96987   2.00213
 Alpha virt. eigenvalues --    2.08478   2.09263   2.10880   2.15547   2.19230
 Alpha virt. eigenvalues --    2.29013   2.34267   2.38518   2.41104   2.42248
 Alpha virt. eigenvalues --    2.44184   2.52202   2.57508   2.67290   2.71186
 Alpha virt. eigenvalues --    2.77305   2.85468   2.90875   2.93790   3.07810
 Alpha virt. eigenvalues --    3.11966   3.25863   3.29878   3.44053   3.49430
 Alpha virt. eigenvalues --    3.49454   3.57337   3.62655   3.74980   3.78141
 Alpha virt. eigenvalues --    3.84136   3.85396   3.89995   3.90663   3.90807
 Alpha virt. eigenvalues --    3.91717   3.92279   3.97514   4.01613   4.12804
 Alpha virt. eigenvalues --    4.16048   4.19639   4.25091   4.36788   4.37929
 Alpha virt. eigenvalues --    4.40379   4.47440   4.54296   4.58510   4.59591
 Alpha virt. eigenvalues --    4.66304   4.74430   4.76746   4.85422   4.91270
 Alpha virt. eigenvalues --    4.92972   4.97542   5.09556   5.18481   5.19532
 Alpha virt. eigenvalues --    5.25279   5.40444   5.74654   5.77018   5.78211
 Alpha virt. eigenvalues --    5.86245   5.87618   5.88584   5.91715   5.95091
 Alpha virt. eigenvalues --    5.95527   5.98294   5.99461   6.00290   6.05414
 Alpha virt. eigenvalues --    6.06700   6.13587   6.19829   6.21400   6.34904
 Alpha virt. eigenvalues --    6.36978   6.40663   6.40743   6.41086   6.44887
 Alpha virt. eigenvalues --    6.48690   6.58399   6.64680   6.70379   6.85252
 Alpha virt. eigenvalues --    6.94032   7.22199   7.37015   7.44224   7.66508
 Alpha virt. eigenvalues --    7.77882   9.23915
          Condensed to atoms (all electrons):
               1          2          3          4          5          6
     1  N    5.856793   0.165650   0.365248   0.365248  -0.092925  -0.092925
     2  N    0.165650   5.856793  -0.092925  -0.092925   0.365248   0.365248
     3  O    0.365248  -0.092925   8.006515  -0.111864   0.036325   0.013157
     4  O    0.365248  -0.092925  -0.111864   8.006515   0.013157   0.036325
     5  O   -0.092925   0.365248   0.036325   0.013157   8.006515  -0.111864
     6  O   -0.092925   0.365248   0.013157   0.036325  -0.111864   8.006515
 Mulliken charges:
               1
     1  N    0.432912
     2  N    0.432912
     3  O   -0.216456
     4  O   -0.216456
     5  O   -0.216456
     6  O   -0.216456
 Sum of Mulliken charges =  -0.00000
 Mulliken charges with hydrogens summed into heavy atoms:
               1
     1  N    0.432912
     2  N    0.432912
     3  O   -0.216456
     4  O   -0.216456
     5  O   -0.216456
     6  O   -0.216456
 Electronic spatial extent (au):  <R**2>=            463.6206
 Charge=              0.0000 electrons
 Dipole moment (field-independent basis, Debye):
    X=              0.0000    Y=             -0.0000    Z=              0.0000  Tot=              0.0000
 Quadrupole moment (field-independent basis, Debye-Ang):
   XX=            -29.4760   YY=            -36.5416   ZZ=            -34.6507
   XY=             -0.0000   XZ=             -0.0000   YZ=             -0.0000
 Traceless Quadrupole moment (field-independent basis, Debye-Ang):
   XX=              4.0801   YY=             -2.9855   ZZ=             -1.0946
   XY=             -0.0000   XZ=             -0.0000   YZ=             -0.0000
 Octapole moment (field-independent basis, Debye-Ang**2):
  XXX=              0.0000  YYY=             -0.0000  ZZZ=              0.0000  XYY=              0.0000
  XXY=             -0.0000  XXZ=             -0.0000  XZZ=              0.0000  YZZ=             -0.0000
  YYZ=              0.0000  XYZ=              0.0000
 Hexadecapole moment (field-independent basis, Debye-Ang**3):
 XXXX=            -22.6965 YYYY=           -183.1139 ZZZZ=           -323.2042 XXXY=             -0.0000
 XXXZ=              0.0000 YYYX=             -0.0000 YYYZ=              0.0000 ZZZX=              0.0000
 ZZZY=             -0.0000 XXYY=            -33.4892 XXZZ=            -53.4920 YYZZ=            -89.1402
 XXYZ=              0.0000 YYXZ=              0.0000 ZZXY=             -0.0000
 N-N= 2.367911019945D+02 E-N=-1.439770011055D+03  KE= 4.092165959714D+02
 Symmetry AG   KE= 1.225137362325D+02
 Symmetry B1G  KE= 4.947234423263D+00
 Symmetry B2G  KE= 4.094276726140D+00
 Symmetry B3G  KE= 7.543452549999D+01
 Symmetry AU   KE= 5.141909253060D+00
 Symmetry B1U  KE= 1.189367633734D+02
 Symmetry B2U  KE= 7.445777603237D+01
 Symmetry B3U  KE= 3.690374430657D+00
 1\1\GINC-GAMBA\FOpt\RB3LYP\Gen\N2O4\IRIKURA\17-Jun-2022\0\\# b3lyp/gen
  opt freq\\dinitrogen tetroxide, B3LYP/pcseg-2\\0,1\N,0.,0.,0.90331274
 25\N,0.,0.,-0.9033127425\O,0.,1.0940424913,1.3594928736\O,0.,-1.094042
 4913,1.3594928736\O,0.,1.0940424913,-1.3594928736\O,0.,-1.0940424913,-
 1.3594928736\\Version=ES64L-G16RevB.01\State=1-AG\HF=-410.349528\RMSD=
 5.284e-09\RMSF=1.998e-05\Dipole=0.,0.,0.\Quadrupole=3.0334757,-2.21966
 63,-0.8138093,0.,0.,0.\PG=D02H [C2"(N1.N1),SG(O4)]\\@


[...]
 Full mass-weighted force constant matrix:
 Low frequencies ---   -5.5572   -0.0013    0.0008    0.0012    2.8602    3.3790
 Low frequencies ---   86.8339  223.0530  291.9891
 Diagonal vibrational polarizability:
        2.2106539       6.1460548      21.5100151
 Harmonic frequencies (cm**-1), IR intensities (KM/Mole), Raman scattering
 activities (A**4/AMU), depolarization ratios for plane and unpolarized
 incident light, reduced masses (AMU), force constants (mDyne/A),
 and normal coordinates:
                      1                      2                      3
                     AU                     B2U                    AG
 Frequencies --     86.8339               223.0530               291.9891
 Red. masses --     15.9949                15.9223                15.4955
 Frc consts  --      0.0711                 0.4667                 0.7784
 IR Inten    --      0.0000                 0.0520                 0.0000
  Atom  AN      X      Y      Z        X      Y      Z        X      Y      Z
     1   7     0.00   0.00  -0.00     0.00   0.14  -0.00    -0.00   0.00   0.35
     2   7    -0.00  -0.00   0.00    -0.00   0.14   0.00     0.00   0.00  -0.35
     3   8     0.50  -0.00  -0.00     0.00  -0.06   0.49     0.00  -0.03   0.43
     4   8    -0.50  -0.00  -0.00    -0.00  -0.06  -0.49    -0.00   0.03   0.43
     5   8    -0.50  -0.00   0.00     0.00  -0.06  -0.49    -0.00  -0.03  -0.43
     6   8     0.50   0.00   0.00     0.00  -0.06   0.49     0.00   0.03  -0.43
                      4                      5                      6
                     B3U                    B3G                    B2G
 Frequencies --    442.3973               494.0669               696.4346
 Red. masses --     14.5549                15.5601                14.2913
 Frc consts  --      1.6784                 2.2379                 4.0840
 IR Inten    --     16.0773                 0.0000                 0.0000
  Atom  AN      X      Y      Z        X      Y      Z        X      Y      Z
     1   7     0.60   0.00   0.00    -0.00   0.33   0.00     0.65   0.00  -0.00
     2   7     0.60  -0.00   0.00    -0.00  -0.33   0.00    -0.65  -0.00   0.00
     3   8    -0.26   0.00   0.00     0.00   0.21   0.39    -0.19   0.00   0.00
     4   8    -0.26   0.00  -0.00     0.00   0.21  -0.39    -0.19   0.00   0.00
     5   8    -0.26  -0.00   0.00     0.00  -0.21   0.39     0.19  -0.00   0.00
     6   8    -0.26  -0.00  -0.00     0.00  -0.21  -0.39     0.19   0.00  -0.00
                      7                      8                      9
                     B1U                    AG                     B1U
 Frequencies --    760.5225               850.3317              1303.5749
 Red. masses --     15.0371                15.1358                15.4505
 Frc consts  --      5.1243                 6.4481                15.4690
 IR Inten    --    291.5152                 0.0000               501.7856
  Atom  AN      X      Y      Z        X      Y      Z        X      Y      Z
     1   7    -0.00  -0.00   0.49     0.00   0.00   0.46    -0.00   0.00  -0.37
     2   7    -0.00   0.00   0.49    -0.00   0.00  -0.46     0.00  -0.00  -0.37
     3   8     0.00   0.29  -0.21    -0.00   0.35  -0.14    -0.00   0.39   0.16
     4   8     0.00  -0.29  -0.21    -0.00  -0.35  -0.14     0.00  -0.39   0.16
     5   8     0.00  -0.29  -0.21     0.00   0.35   0.14     0.00  -0.39   0.16
     6   8     0.00   0.29  -0.21     0.00  -0.35   0.14    -0.00   0.39   0.16
                     10                     11                     12
                     AG                     B3G                    B2U
 Frequencies --   1447.3676              1784.3891              1816.6395
 Red. masses --     15.1861                14.5492                14.6156
 Frc consts  --     18.7437                27.2941                28.4187
 IR Inten    --      0.0000                 0.0000               750.2514
  Atom  AN      X      Y      Z        X      Y      Z        X      Y      Z
     1   7     0.00   0.00   0.45     0.00   0.60   0.00     0.00   0.59  -0.00
     2   7     0.00   0.00  -0.45     0.00  -0.60   0.00    -0.00   0.59   0.00
     3   8    -0.00  -0.34  -0.18    -0.00  -0.25  -0.09     0.00  -0.26  -0.10
     4   8    -0.00   0.34  -0.18     0.00  -0.25   0.09     0.00  -0.26   0.10
     5   8    -0.00  -0.34   0.18    -0.00   0.25  -0.09     0.00  -0.26   0.10
     6   8    -0.00   0.34   0.18    -0.00   0.25   0.09     0.00  -0.26  -0.10

 -------------------
 - Thermochemistry -
 -------------------
 Temperature   298.150 Kelvin.  Pressure   1.00000 Atm.
 Atom     1 has atomic number  7 and mass  14.00307
 Atom     2 has atomic number  7 and mass  14.00307
 Atom     3 has atomic number  8 and mass  15.99491
 Atom     4 has atomic number  8 and mass  15.99491
 Atom     5 has atomic number  8 and mass  15.99491
 Atom     6 has atomic number  8 and mass  15.99491
 Molecular mass:    91.98581 amu.
 Principal axes and moments of inertia in atomic units:
                           1         2         3
     Eigenvalues --   273.46896 503.88020 777.34915
           X            0.00000   0.00000   1.00000
           Y            0.00000   1.00000  -0.00000
           Z            1.00000  -0.00000  -0.00000
 This molecule is an asymmetric top.
 Rotational symmetry number  4.
 Rotational temperatures (Kelvin)      0.31672     0.17189     0.11142
 Rotational constants (GHZ):           6.59944     3.58169     2.32166
 Zero-point vibrational energy      60995.2 (Joules/Mol)
                                   14.57820 (Kcal/Mol)
 Warning -- explicit consideration of   5 degrees of freedom as
           vibrations may cause significant error
 Vibrational temperatures:    124.93   320.92   420.11   636.51   710.85
          (Kelvin)           1002.01  1094.22  1223.44  1875.55  2082.44
                             2567.34  2613.74
 
 Zero-point correction=                           0.023232 (Hartree/Particle)
 Thermal correction to Energy=                    0.028569
 Thermal correction to Enthalpy=                  0.029513
 Thermal correction to Gibbs Free Energy=        -0.004828
 Sum of electronic and zero-point Energies=           -410.326296
 Sum of electronic and thermal Energies=              -410.320959
 Sum of electronic and thermal Enthalpies=            -410.320015
 Sum of electronic and thermal Free Energies=         -410.354356
 
                     E (Thermal)             CV                S
                      KCal/Mol        Cal/Mol-Kelvin    Cal/Mol-Kelvin
 Total                   17.927             16.468             72.278
 Electronic               0.000              0.000              0.000
 Translational            0.889              2.981             39.469
 Rotational               0.889              2.981             23.419
 Vibrational             16.150             10.506              9.389
 Vibration     1          0.601              1.958              3.730
 Vibration     2          0.649              1.806              1.934
 Vibration     3          0.687              1.689              1.462
 Vibration     4          0.802              1.378              0.819
 Vibration     5          0.850              1.263              0.673
                       Q            Log10(Q)             Ln(Q)
 Total Bot       0.166304D+03          2.220903          5.113819
 Total V=0       0.806862D+13         12.906799         29.719004
 Vib (Bot)       0.163741D-09         -9.785843        -22.532737
 Vib (Bot)    1  0.236908D+01          0.374579          0.862501
 Vib (Bot)    2  0.885659D+00         -0.052733         -0.121423
 Vib (Bot)    3  0.654220D+00         -0.184276         -0.424312
 Vib (Bot)    4  0.390013D+00         -0.408921         -0.941576
 Vib (Bot)    5  0.334401D+00         -0.475733         -1.095416
 Vib (V=0)       0.794425D+01          0.900053          2.072449
 Vib (V=0)    1  0.292127D+01          0.465571          1.072017
 Vib (V=0)    2  0.151705D+01          0.181000          0.416768
 Vib (V=0)    3  0.132341D+01          0.121694          0.280212
 Vib (V=0)    4  0.113412D+01          0.054660          0.125858
 Vib (V=0)    5  0.110152D+01          0.041992          0.096689
 Electronic      0.100000D+01          0.000000          0.000000
 Translational   0.346765D+08          7.540035         17.361572
 Rotational      0.292895D+05          4.466711         10.284983
 ***** Axes restored to original set *****
 -------------------------------------------------------------------
 Center     Atomic                   Forces (Hartrees/Bohr)
 Number     Number              X              Y              Z
 -------------------------------------------------------------------
      1        7          -0.000000000    0.000000000   -0.000010011
      2        7          -0.000000000    0.000000000    0.000010011
      3        8           0.000000000    0.000041315   -0.000006540
      4        8           0.000000000   -0.000041315   -0.000006540
      5        8          -0.000000000    0.000041315    0.000006540
      6        8           0.000000000   -0.000041315    0.000006540
 -------------------------------------------------------------------
 Cartesian Forces:  Max     0.000041315 RMS     0.000019999
 FormGI is forming the generalized inverse of G from B-inverse, IUseBI=4.

 GradGradGradGradGradGradGradGradGradGradGradGradGradGradGradGradGradGrad
 Berny optimization.
 Internal  Forces:  Max     0.000035616 RMS     0.000024257
 Search for a local minimum.
 Step number   1 out of a maximum of    2
 All quantities printed in internal units (Hartrees-Bohrs-Radians)
 Second derivative matrix not updated -- analytic derivatives used.
 The second derivative matrix:
                          R1        R2        R3        R4        R5
           R1           0.08088
           R2           0.00966   0.76793
           R3           0.00966   0.10449   0.76793
           R4           0.00966   0.02939   0.01860   0.76793
           R5           0.00966   0.01860   0.02939   0.10449   0.76793
           A1           0.00711  -0.00963  -0.03819  -0.00827   0.02716
           A2           0.00711  -0.03819  -0.00963   0.02716  -0.00827
           A3          -0.01423   0.04782   0.04782  -0.01889  -0.01889
           A4           0.00711  -0.00827   0.02716  -0.00963  -0.03819
           A5           0.00711   0.02716  -0.00827  -0.03819  -0.00963
           A6          -0.01423  -0.01889  -0.01889   0.04782   0.04782
           D1           0.00000   0.00000   0.00000  -0.00000   0.00000
           D2          -0.00000   0.00000   0.00000   0.00000  -0.00000
           D3          -0.00000  -0.00000   0.00000  -0.00000   0.00000
           D4          -0.00000  -0.00000   0.00000   0.00000  -0.00000
                          A1        A2        A3        A4        A5
           A1           0.13753
           A2          -0.04875   0.13753
           A3          -0.08878  -0.08878   0.17757
           A4          -0.02030   0.02953  -0.00923   0.13753
           A5           0.02953  -0.02030  -0.00923  -0.04875   0.13753
           A6          -0.00923  -0.00923   0.01847  -0.08878  -0.08878
           D1          -0.00000   0.00000   0.00000  -0.00000   0.00000
           D2          -0.00000   0.00000   0.00000   0.00000  -0.00000
           D3           0.00000   0.00000  -0.00000  -0.00000   0.00000
           D4           0.00000  -0.00000  -0.00000   0.00000  -0.00000
                          A6        D1        D2        D3        D4
           A6           0.17757
           D1          -0.00000   0.05204
           D2           0.00000   0.00122   0.03977
           D3          -0.00000   0.00122  -0.03732   0.03977
           D4           0.00000  -0.04959   0.00122   0.00122   0.05204
 ITU=  0
     Eigenvalues ---    0.00490   0.07709   0.07732   0.10162   0.13637
     Eigenvalues ---    0.21668   0.22651   0.29327   0.66226   0.67431
     Eigenvalues ---    0.84639   0.92475
 Angle between quadratic step and forces=  46.02 degrees.
 Linear search not attempted -- first point.
 Iteration  1 RMS(Cart)=  0.00012309 RMS(Int)=  0.00000000
 Iteration  2 RMS(Cart)=  0.00000000 RMS(Int)=  0.00000000
 ClnCor:  largest displacement from symmetrization is 2.16D-12 for atom     6.
 Variable       Old X    -DE/DX   Delta X   Delta X   Delta X     New X
                                 (Linear)    (Quad)   (Total)
    R1        3.41403  -0.00002   0.00000  -0.00025  -0.00025   3.41377
    R2        2.23997   0.00004   0.00000   0.00004   0.00004   2.24000
    R3        2.23997   0.00004   0.00000   0.00004   0.00004   2.24000
    R4        2.23997   0.00004   0.00000   0.00004   0.00004   2.24000
    R5        2.23997   0.00004   0.00000   0.00004   0.00004   2.24000
    A1        1.96584  -0.00002   0.00000  -0.00005  -0.00005   1.96580
    A2        1.96584  -0.00002   0.00000  -0.00005  -0.00005   1.96580
    A3        2.35150   0.00003   0.00000   0.00009   0.00009   2.35159
    A4        1.96584  -0.00002   0.00000  -0.00005  -0.00005   1.96580
    A5        1.96584  -0.00002   0.00000  -0.00005  -0.00005   1.96580
    A6        2.35150   0.00003   0.00000   0.00009   0.00009   2.35159
    D1        0.00000  -0.00000   0.00000  -0.00000  -0.00000   0.00000
    D2        3.14159  -0.00000   0.00000  -0.00000   0.00000   3.14159
    D3        3.14159   0.00000   0.00000  -0.00000   0.00000   3.14159
    D4        0.00000  -0.00000   0.00000  -0.00000   0.00000   0.00000
         Item               Value     Threshold  Converged?
 Maximum Force            0.000036     0.000450     YES
 RMS     Force            0.000024     0.000300     YES
 Maximum Displacement     0.000208     0.001800     YES
 RMS     Displacement     0.000123     0.001200     YES
 Predicted change in Energy=-1.008948D-08
 Optimization completed.
    -- Stationary point found.
                           ----------------------------
                           !   Optimized Parameters   !
                           ! (Angstroms and Degrees)  !
 --------------------------                            --------------------------
 ! Name  Definition              Value          Derivative Info.                !
 --------------------------------------------------------------------------------
 ! R1    R(1,2)                  1.8066         -DE/DX =    0.0                 !
 ! R2    R(1,3)                  1.1853         -DE/DX =    0.0                 !
 ! R3    R(1,4)                  1.1853         -DE/DX =    0.0                 !
 ! R4    R(2,5)                  1.1853         -DE/DX =    0.0                 !
 ! R5    R(2,6)                  1.1853         -DE/DX =    0.0                 !
 ! A1    A(2,1,3)              112.6345         -DE/DX =    0.0                 !
 ! A2    A(2,1,4)              112.6345         -DE/DX =    0.0                 !
 ! A3    A(3,1,4)              134.7309         -DE/DX =    0.0                 !
 ! A4    A(1,2,5)              112.6345         -DE/DX =    0.0                 !
 ! A5    A(1,2,6)              112.6345         -DE/DX =    0.0                 !
 ! A6    A(5,2,6)              134.7309         -DE/DX =    0.0                 !
 ! D1    D(3,1,2,5)              0.0            -DE/DX =    0.0                 !
 ! D2    D(3,1,2,6)            180.0            -DE/DX =    0.0                 !
 ! D3    D(4,1,2,5)            180.0            -DE/DX =    0.0                 !
 ! D4    D(4,1,2,6)              0.0            -DE/DX =    0.0                 !
 --------------------------------------------------------------------------------
 GradGradGradGradGradGradGradGradGradGradGradGradGradGradGradGradGradGrad

 Dipole is zero, so no output in dipole orientation.

 ----------------------------------------------------------------------

 Electric dipole moment (input orientation):
 (Debye = 10**-18 statcoulomb cm , SI units = C m)
                  (au)            (Debye)         (10**-30 SI)
   Tot        0.000000D+00      0.000000D+00      0.000000D+00
   x          0.000000D+00      0.000000D+00      0.000000D+00
   y          0.000000D+00      0.000000D+00      0.000000D+00
   z          0.000000D+00      0.000000D+00      0.000000D+00

 Dipole polarizability, Alpha (input orientation).
 (esu units = cm**3 , SI units = C**2 m**2 J**-1)
 Alpha(0;0):
               (au)            (10**-24 esu)      (10**-40 SI)
   iso        0.392264D+02      0.581276D+01      0.646757D+01
   aniso      0.322318D+02      0.477626D+01      0.531431D+01
   xx         0.179269D+02      0.265649D+01      0.295575D+01
   yx         0.000000D+00      0.000000D+00      0.000000D+00
   yy         0.474177D+02      0.702658D+01      0.781813D+01
   zx         0.000000D+00      0.000000D+00      0.000000D+00
   zy         0.000000D+00      0.000000D+00      0.000000D+00
   zz         0.523347D+02      0.775520D+01      0.862883D+01

 ----------------------------------------------------------------------
 1\1\GINC-GAMBA\Freq\RB3LYP\Gen\N2O4\IRIKURA\17-Jun-2022\0\\#N Geom=All
 Check Guess=TCheck SCRF=Check GenChk RB3LYP/ChkBas Freq\\dinitrogen te
 troxide, B3LYP/pcseg-2\\0,1\N,0.,0.,0.9033127425\N,0.,0.,-0.9033127425
 \O,0.,1.0940424913,1.3594928736\O,0.,-1.0940424913,1.3594928736\O,0.,1
 .0940424913,-1.3594928736\O,0.,-1.0940424913,-1.3594928736\\Version=ES
 64L-G16RevB.01\State=1-AG\HF=-410.349528\RMSD=1.212e-09\RMSF=2.000e-05
 \ZeroPoint=0.0232318\Thermal=0.0285688\Dipole=0.,0.,0.\DipoleDeriv=0.2
 833922,0.,0.,0.,1.8942167,0.,0.,0.,1.913144,0.2833922,0.,0.,0.,1.89421
 67,0.,0.,0.,1.9131439,-0.1416961,0.,0.,0.,-0.9471083,-0.4985275,0.,-0.
 3624047,-0.956572,-0.1416961,0.,0.,0.,-0.9471083,0.4985275,0.,0.362404
 7,-0.956572,-0.1416961,0.,0.,0.,-0.9471083,0.4985275,0.,0.3624047,-0.9
 56572,-0.1416961,0.,0.,0.,-0.9471083,-0.4985275,0.,-0.3624047,-0.95657
 2\Polar=17.9269082,0.,47.4177212,0.,0.,52.3347095\Quadrupole=3.033475,
 -2.2196638,-0.8138112,0.,0.,0.\PG=D02H [C2"(N1.N1),SG(O4)]\NImag=0\\0.
 14376872,0.,1.18262555,0.,0.,0.46955955,-0.07163127,0.,0.,0.14376872,0
 .,-0.02147131,0.,0.,1.18262555,0.,0.,-0.10921637,0.,0.,0.46955955,-0.0
 5381353,0.,0.,0.01774481,0.,0.,0.02204125,0.,-0.55620784,-0.20299619,0
 .,-0.02436928,0.02371735,0.,0.68696055,0.,-0.19573489,-0.20684975,0.,-
 0.03193646,0.02667815,0.,0.21984154,0.17914580,-0.05381353,0.,0.,0.017
 74481,0.,0.,0.01976856,0.,0.,0.02204125,0.,-0.55620784,0.20299619,0.,-
 0.02436928,-0.02371735,0.,-0.12533767,0.01159847,0.,0.68696055,0.,0.19
 573489,-0.20684975,0.,0.03193646,0.02667816,0.,-0.01159847,0.04021296,
 0.,-0.21984154,0.17914580,0.01774481,0.,0.,-0.05381353,0.,0.,-0.004016
 23,0.,0.,-0.00172486,0.,0.,0.02204125,0.,-0.02436928,-0.02371735,0.,-0
 .55620784,0.20299619,0.,0.02216098,0.01259778,0.,-0.00320673,0.0163664
 5,0.,0.68696055,0.,0.03193646,0.02667815,0.,0.19573489,-0.20684975,0.,
 -0.01259778,-0.01054147,0.,0.01636645,-0.02864569,0.,-0.21984154,0.179
 14580,0.01774481,0.,0.,-0.05381353,0.,0.,-0.00172486,0.,0.,-0.00401623
 ,0.,0.,0.01976856,0.,0.,0.02204125,0.,-0.02436928,0.02371735,0.,-0.556
 20784,-0.20299619,0.,-0.00320673,-0.01636645,0.,0.02216098,-0.01259778
 ,0.,-0.12533767,-0.01159847,0.,0.68696055,0.,-0.03193646,0.02667816,0.
 ,-0.19573489,-0.20684975,0.,-0.01636645,-0.02864569,0.,0.01259778,-0.0
 1054147,0.,0.01159847,0.04021296,0.,0.21984154,0.17914580\\0.,0.,0.000
 01001,0.,0.,-0.00001001,0.,-0.00004131,0.00000654,0.,0.00004131,0.0000
 0654,0.,-0.00004131,-0.00000654,0.,0.00004131,-0.00000654\\\@


 THE DIFFICULTY IN SCIENCE IS OFTEN NOT SO MUCH HOW
 TO MAKE A DISCOVERY BUT RATHER TO KNOW ONE HAS MADE IT.

                                                   -- J. D. BERNAL
 Job cpu time:       0 days  0 hours  4 minutes  6.7 seconds.
 Elapsed time:       0 days  0 hours  0 minutes 20.6 seconds.
 File lengths (MBytes):  RWF=     19 Int=      0 D2E=      0 Chk=      4 Scr=      1
 Normal termination of Gaussian 16 at Fri Jun 17 14:24:31 2022.
