 Entering Gaussian System, Link 0=g16
 AtFile(1): pcseg2.gbs
            -H     0
            S   4   1.00
                  0.754732D+02           0.427821D-02
                  0.113575D+02           0.328672D-01
                  0.260081D+01           0.159578D+00
                  0.735503D+00           0.500000D+00
            S   1   1.00
                  0.231761D+00           1.0000000
            S   1   1.00
                  0.741675D-01           1.0000000
            P   1   1.00
                  0.160000D+01           1.0000000
            P   1   1.00
                  0.450000D+00           1.0000000
            D   1   1.00
                  0.125000D+01           1.0000000
            ****
            -C     0
            S   7   1.00
                  0.731999D+04           0.695369D-03
                  0.109818D+04           0.537138D-02
                  0.250014D+03           0.274734D-01
                  0.707586D+02           0.105078D+00
                  0.228595D+02           0.291262D+00
                  0.803936D+01           0.500000D+00
                  0.289309D+01           0.362224D+00
            S   2   1.00
                  0.521640D+01          -0.957844D-01
                  0.556124D+00           0.500000D+00
            S   1   1.00
                  0.228813D+00           1.0000000
            S   1   1.00
                  0.936338D-01           1.0000000
            P   4   1.00
                  0.339855D+02           0.818395D-02
                  0.772957D+01           0.586921D-01
                  0.224954D+01           0.222514D+00
                  0.767681D+00           0.500000D+00
            P   1   1.00
                  0.263283D+00           1.0000000
            P   1   1.00
                  0.848744D-01           1.0000000
            D   1   1.00
                  0.140000D+01           1.0000000
            D   1   1.00
                  0.450000D+00           1.0000000
            F   1   1.00
                  0.950000D+00           1.0000000
            ****
            -O     0
            S   7   1.00
                  0.135887D+05           0.665492D-03
                  0.203847D+04           0.514222D-02
                  0.464041D+03           0.263472D-01
                  0.131339D+03           0.101500D+00
                  0.425340D+02           0.285877D+00
                  0.150429D+02           0.500000D+00
                  0.546616D+01           0.368211D+00
            S   2   1.00
                  0.100915D+02          -0.100084D+00
                  0.110429D+01           0.500000D+00
            S   1   1.00
                  0.448082D+00           1.0000000
            S   1   1.00
                  0.175325D+00           1.0000000
            P   4   1.00
                  0.608220D+02           0.908253D-02
                  0.140332D+02           0.645878D-01
                  0.418244D+01           0.241502D+00
                  0.142490D+01           0.500000D+00
            P   1   1.00
                  0.478741D+00           1.0000000
            P   1   1.00
                  0.146257D+00           1.0000000
            D   1   1.00
                  0.220000D+01           1.0000000
            D   1   1.00
                  0.650000D+00           1.0000000
            F   1   1.00
                  0.110000D+01           1.0000000
            ****
            -N     0
            S   7   1.00
                  0.101643D+05           0.682757D-03
                  0.152481D+04           0.527488D-02
                  0.347119D+03           0.270037D-01
                  0.982389D+02           0.103673D+00
                  0.317799D+02           0.289575D+00
                  0.112240D+02           0.500000D+00
                  0.406611D+01           0.364621D+00
            S   2   1.00
                  0.747898D+01          -0.975681D-01
                  0.805040D+00           0.500000D+00
            S   1   1.00
                  0.324626D+00           1.0000000
            S   1   1.00
                  0.128132D+00           1.0000000
            P   4   1.00
                  0.482704D+02           0.829547D-02
                  0.110815D+02           0.596223D-01
                  0.326643D+01           0.227889D+00
                  0.111680D+01           0.500000D+00
            P   1   1.00
                  0.382049D+00           1.0000000
            P   1   1.00
                  0.121222D+00           1.0000000
            D   1   1.00
                  0.180000D+01           1.0000000
            D   1   1.00
                  0.550000D+00           1.0000000
            F   1   1.00
                  0.102000D+01           1.0000000
            ****
            -F     0
            S   7   1.00
                  0.174507D+05           0.655972D-03
                  0.261768D+04           0.506944D-02
                  0.595857D+03           0.259899D-01
                  0.168651D+03           0.100353D+00
                  0.546654D+02           0.284095D+00
                  0.193717D+02           0.500000D+00
                  0.706202D+01           0.370721D+00
            S   2   1.00
                  0.131197D+02          -0.101997D+00
                  0.145046D+01           0.500000D+00
            S   1   1.00
                  0.588255D+00           1.0000000
            S   1   1.00
                  0.227960D+00           1.0000000
            P   4   1.00
                  0.779407D+02           0.931135D-02
                  0.180425D+02           0.663964D-01
                  0.542342D+01           0.246386D+00
                  0.184876D+01           0.500000D+00
            P   1   1.00
                  0.617455D+00           1.0000000
            P   1   1.00
                  0.185496D+00           1.0000000
            D   1   1.00
                  0.280000D+01           1.0000000
            D   1   1.00
                  0.800000D+00           1.0000000
            F   1   1.00
                  0.120000D+01           1.0000000
            ****
            -Cl     0
            S   8   1.00
                  0.154272D+06           0.222473D-03
                  0.231232D+05           0.172590D-02
                  0.526257D+04           0.899286D-02
                  0.148995D+04           0.367724D-01
                  0.485417D+03           0.121446D+00
                  0.174634D+03           0.304148D+00
                  0.672393D+02           0.500000D+00
                  0.265780D+02           0.360252D+00
            S   3   1.00
                  0.131826D+03          -0.531330D-01
                  0.400703D+02          -0.233346D+00
                  0.789448D+01           0.500000D+00
            S   2   1.00
                  0.427711D+01           0.500000D+00
                  0.196233D+01           0.370517D+00
            S   1   1.00
                  0.520793D+00           1.0000000
            S   1   1.00
                  0.181633D+00           1.0000000
            P   7   1.00
                  0.124440D+04           0.988206D-03
                  0.295109D+03           0.829674D-02
                  0.947224D+02           0.430906D-01
                  0.352588D+02           0.148443D+00
                  0.144211D+02           0.344744D+00
                  0.610371D+01           0.500000D+00
                  0.258886D+01           0.348278D+00
            P   2   1.00
                  0.109447D+02          -0.196768D-01
                  0.104413D+01           0.500000D+00
            P   1   1.00
                  0.376184D+00           1.0000000
            P   1   1.00
                  0.120613D+00           1.0000000
            D   1   1.00
                  0.231000D+01           1.0000000
            D   1   1.00
                  0.520000D+00           1.0000000
            F   1   1.00
                  0.720000D+00           1.0000000
            ****
            -S     0
            S   8   1.00
                  0.134700D+06           0.226231D-03
                  0.201904D+05           0.175488D-02
                  0.459528D+04           0.914190D-02
                  0.130109D+04           0.373551D-01
                  0.423902D+03           0.123121D+00
                  0.152485D+03           0.306801D+00
                  0.586925D+02           0.500000D+00
                  0.231461D+02           0.354358D+00
            S   3   1.00
                  0.116327D+03          -0.491772D-01
                  0.352841D+02          -0.215962D+00
                  0.677831D+01           0.500000D+00
            S   2   1.00
                  0.360404D+01           0.500000D+00
                  0.164871D+01           0.366278D+00
            S   1   1.00
                  0.421821D+00           1.0000000
            S   1   1.00
                  0.147554D+00           1.0000000
            P   7   1.00
                  0.104863D+04           0.105273D-02
                  0.248717D+03           0.879338D-02
                  0.797887D+02           0.453358D-01
                  0.296023D+02           0.154476D+00
                  0.120627D+02           0.352366D+00
                  0.507628D+01           0.500000D+00
                  0.213375D+01           0.346429D+00
            P   2   1.00
                  0.928958D+01          -0.185932D-01
                  0.837819D+00           0.500000D+00
            P   1   1.00
                  0.301495D+00           1.0000000
            P   1   1.00
                  0.974740D-01           1.0000000
            D   1   1.00
                  0.210000D+01           1.0000000
            D   1   1.00
                  0.480000D+00           1.0000000
            F   1   1.00
                  0.660000D+00           1.0000000
            ****
            -Br     0
            S    10   1.00
                  0.233625D+07           0.532336D-04
                  0.349961D+06           0.413715D-03
                  0.796444D+05           0.217123D-02
                  0.225555D+05           0.910109D-02
                  0.735546D+04           0.323789D-01
                  0.265352D+04           0.988755D-01
                  0.103517D+04           0.248138D+00
                  0.422205D+03           0.474328D+00
                  0.180035D+03           0.500000D+00
                  0.793308D+02           0.187769D+00
            S    4   1.00
                  0.620834D+03          -0.226511D-01
                  0.190829D+03          -0.109497D+00
                  0.312505D+02           0.500000D+00
                  0.135270D+02           0.492812D+00
            S    2   1.00
                  0.216097D+02          -0.165418D+00
                  0.372566D+01           0.500000D+00
            S    1   1.00
                  0.169770D+01           1.0000000
            S    1   1.00
                  0.489332D+00           1.0000000
            S    1   1.00
                  0.175712D+00           1.0000000
            P    8   1.00
                  0.960829D+04           0.478974D-03
                  0.227618D+04           0.417853D-02
                  0.736723D+03           0.229315D-01
                  0.281579D+03           0.892653D-01
                  0.118395D+03           0.255288D+00
                  0.527481D+02           0.479074D+00
                  0.245098D+02           0.500000D+00
                  0.112009D+02           0.200944D+00
            P    4   1.00
                  0.587849D+02          -0.189674D-01
                  0.918962D+01           0.264104D+00
                  0.413895D+01           0.500000D+00
                  0.184225D+01           0.319316D+00
            P    1   1.00
                  0.713862D+00           1.0000000
            P    1   1.00
                  0.274232D+00           1.0000000
            P    1   1.00
                  0.944411D-01           1.0000000
            D    7   1.00
                  0.398470D+03           0.204066D-02
                  0.118967D+03           0.175171D-01
                  0.450197D+02           0.829708D-01
                  0.190320D+02           0.236284D+00
                  0.855686D+01           0.428468D+00
                  0.382950D+01           0.500000D+00
                  0.166291D+01           0.349360D+00
            D    1   1.00
                  0.672953D+00           1.0000000
            D    1   1.00
                  0.252000D+00           1.0000000
            F    1   1.00
                  0.530000D+00           1.0000000
            ****
            -Si     0
            S    8   1.00
                  0.996133D+05           0.235546D-03
                  0.149311D+05           0.182707D-02
                  0.339820D+04           0.951425D-02
                  0.962140D+03           0.388172D-01
                  0.313430D+03           0.127328D+00
                  0.112683D+03           0.313522D+00
                  0.433372D+02           0.500000D+00
                  0.170029D+02           0.340347D+00
            S    3   1.00
                  0.884208D+02          -0.404451D-01
                  0.266756D+02          -0.178059D+00
                  0.479640D+01           0.500000D+00
            S    2   1.00
                  0.239385D+01           0.500000D+00
                  0.108333D+01           0.338016D+00
            S    1   1.00
                  0.252420D+00           1.0000000
            S    1   1.00
                  0.891210D-01           1.0000000
            P    7   1.00
                  0.709901D+03           0.123028D-02
                  0.168426D+03           0.101366D-01
                  0.539946D+02           0.511840D-01
                  0.198646D+02           0.169967D+00
                  0.801369D+01           0.370717D+00
                  0.331870D+01           0.500000D+00
                  0.136112D+01           0.344128D+00
            P    2   1.00
                  0.622158D+01          -0.166609D-01
                  0.503049D+00           0.500000D+00
            P    1   1.00
                  0.179848D+00           1.0000000
            P    1   1.00
                  0.591912D-01           1.0000000
            D    1   1.00
                  0.168000D+01           1.0000000
            D    1   1.00
                  0.380000D+00           1.0000000
            F    1   1.00
                  0.540000D+00           1.0000000
            ****
            -P     0
            S    8   1.00
                  0.116416D+06           0.230715D-03
                  0.174500D+05           0.178960D-02
                  0.397149D+04           0.932116D-02
                  0.112447D+04           0.380591D-01
                  0.366347D+03           0.125148D+00
                  0.131757D+03           0.310022D+00
                  0.506988D+02           0.500000D+00
                  0.199436D+02           0.347528D+00
            S    3   1.00
                  0.101878D+03          -0.446755D-01
                  0.308249D+02          -0.196376D+00
                  0.573688D+01           0.500000D+00
            S    2   1.00
                  0.296868D+01           0.500000D+00
                  0.135315D+01           0.355098D+00
            S    1   1.00
                  0.332196D+00           1.0000000
            S    1   1.00
                  0.116229D+00           1.0000000
            P    7   1.00
                  0.873928D+03           0.112375D-02
                  0.207298D+03           0.933330D-02
                  0.664628D+02           0.477213D-01
                  0.245665D+02           0.160733D+00
                  0.996820D+01           0.359760D+00
                  0.416536D+01           0.500000D+00
                  0.173022D+01           0.346593D+00
            P    2   1.00
                  0.772530D+01          -0.175718D-01
                  0.657252D+00           0.500000D+00
            P    1   1.00
                  0.239903D+00           1.0000000
            P    1   1.00
                  0.800988D-01           1.0000000
            D    1   1.00
                  0.189000D+01           1.0000000
            D    1   1.00
                  0.430000D+00           1.0000000
            F    1   1.00
                  0.600000D+00           1.0000000
            ****
            
 Initial command:
 /usr/local/apps/g16_b01_avx/g16/l1.exe "/wrk/irikura/Gau-17517.inp" -scrdir="/wrk/irikura/"
 Entering Link 1 = /usr/local/apps/g16_b01_avx/g16/l1.exe PID=     17519.
  
 Copyright (c) 1988-2017, Gaussian, Inc.  All Rights Reserved.
  
 This is part of the Gaussian(R) 16 program.  It is based on
 the Gaussian(R) 09 system (copyright 2009, Gaussian, Inc.),
 the Gaussian(R) 03 system (copyright 2003, Gaussian, Inc.),
 the Gaussian(R) 98 system (copyright 1998, Gaussian, Inc.),
 the Gaussian(R) 94 system (copyright 1995, Gaussian, Inc.),
 the Gaussian 92(TM) system (copyright 1992, Gaussian, Inc.),
 the Gaussian 90(TM) system (copyright 1990, Gaussian, Inc.),
 the Gaussian 88(TM) system (copyright 1988, Gaussian, Inc.),
 the Gaussian 86(TM) system (copyright 1986, Carnegie Mellon
 University), and the Gaussian 82(TM) system (copyright 1983,
 Carnegie Mellon University). Gaussian is a federally registered
 trademark of Gaussian, Inc.
  
 This software contains proprietary and confidential information,
 including trade secrets, belonging to Gaussian, Inc.
  
 This software is provided under written license and may be
 used, copied, transmitted, or stored only in accord with that
 written license.
  
 The following legend is applicable only to US Government
 contracts under FAR:
  
                    RESTRICTED RIGHTS LEGEND
  
 Use, reproduction and disclosure by the US Government is
 subject to restrictions as set forth in subparagraphs (a)
 and (c) of the Commercial Computer Software - Restricted
 Rights clause in FAR 52.227-19.
  
 Gaussian, Inc.
 340 Quinnipiac St., Bldg. 40, Wallingford CT 06492
  
  
 ---------------------------------------------------------------
 Warning -- This program may not be used in any manner that
 competes with the business of Gaussian, Inc. or will provide
 assistance to any competitor of Gaussian, Inc.  The licensee
 of this program is prohibited from giving any competitor of
 Gaussian, Inc. access to this program.  By using this program,
 the user acknowledges that Gaussian, Inc. is engaged in the
 business of creating and licensing software in the field of
 computational chemistry and represents and warrants to the
 licensee that it is not a competitor of Gaussian, Inc. and that
 it will not use this program in any manner prohibited above.
 ---------------------------------------------------------------
  

 Cite this work as:
 Gaussian 16, Revision B.01,
 M. J. Frisch, G. W. Trucks, H. B. Schlegel, G. E. Scuseria, 
 M. A. Robb, J. R. Cheeseman, G. Scalmani, V. Barone, 
 G. A. Petersson, H. Nakatsuji, X. Li, M. Caricato, A. V. Marenich, 
 J. Bloino, B. G. Janesko, R. Gomperts, B. Mennucci, H. P. Hratchian, 
 J. V. Ortiz, A. F. Izmaylov, J. L. Sonnenberg, D. Williams-Young, 
 F. Ding, F. Lipparini, F. Egidi, J. Goings, B. Peng, A. Petrone, 
 T. Henderson, D. Ranasinghe, V. G. Zakrzewski, J. Gao, N. Rega, 
 G. Zheng, W. Liang, M. Hada, M. Ehara, K. Toyota, R. Fukuda, 
 J. Hasegawa, M. Ishida, T. Nakajima, Y. Honda, O. Kitao, H. Nakai, 
 T. Vreven, K. Throssell, J. A. Montgomery, Jr., J. E. Peralta, 
 F. Ogliaro, M. J. Bearpark, J. J. Heyd, E. N. Brothers, K. N. Kudin, 
 V. N. Staroverov, T. A. Keith, R. Kobayashi, J. Normand, 
 K. Raghavachari, A. P. Rendell, J. C. Burant, S. S. Iyengar, 
 J. Tomasi, M. Cossi, J. M. Millam, M. Klene, C. Adamo, R. Cammi, 
 J. W. Ochterski, R. L. Martin, K. Morokuma, O. Farkas, 
 J. B. Foresman, and D. J. Fox, Gaussian, Inc., Wallingford CT, 2016.
 
 ******************************************
 Gaussian 16:  ES64L-G16RevB.01 20-Dec-2017
                16-Jun-2022 
 ******************************************
 %mem=1000mw
 %nprocs=12
 Will use up to   12 processors via shared memory.
 --------------------
 # b3lyp/gen opt freq
 --------------------
 1/18=20,19=15,26=3,38=1/1,3;
 2/9=110,12=2,17=6,18=5,40=1/2;
 3/5=7,11=2,25=1,30=1,71=1,74=-5/1,2,3;
 4//1;
 5/5=2,38=5/2;
 6/7=2,8=2,9=2,10=2,28=1/1;
 7//1,2,3,16;
 1/18=20,19=15,26=3/3(2);
 2/9=110/2;
 99//99;
 2/9=110/2;
 3/5=7,6=1,11=2,25=1,30=1,71=1,74=-5,82=7/1,2,3;
 4/5=5,16=3,69=1/1;
 5/5=2,38=5/2;
 7//1,2,3,16;
 1/18=20,19=15,26=3/3(-5);
 2/9=110/2;
 6/7=2,8=2,9=2,10=2,19=2,28=1/1;
 99/9=1/99;
 -----------------------------------
 dinitrogen pentoxide, B3LYP/pcseg-2
 -----------------------------------
 Symbolic Z-matrix:
 Charge =  0 Multiplicity = 1
 O                     0.        0.        0.81575 
 N                     0.        1.27585   0.00842 
 N                     0.       -1.27585   0.00842 
 O                     0.50761   2.14598   0.63287 
 O                    -0.50761  -2.14598   0.63287 
 O                    -0.53663   1.23528  -1.04811 
 O                     0.53663  -1.23528  -1.04811 
 

 GradGradGradGradGradGradGradGradGradGradGradGradGradGradGradGradGradGrad
 Berny optimization.
 Initialization pass.
                           ----------------------------
                           !    Initial Parameters    !
                           ! (Angstroms and Degrees)  !
 --------------------------                            --------------------------
 ! Name  Definition              Value          Derivative Info.                !
 --------------------------------------------------------------------------------
 ! R1    R(1,2)                  1.5098         estimate D2E/DX2                !
 ! R2    R(1,3)                  1.5098         estimate D2E/DX2                !
 ! R3    R(2,4)                  1.1852         estimate D2E/DX2                !
 ! R4    R(2,6)                  1.1857         estimate D2E/DX2                !
 ! R5    R(3,5)                  1.1852         estimate D2E/DX2                !
 ! R6    R(3,7)                  1.1857         estimate D2E/DX2                !
 ! A1    A(2,1,3)              115.3507         estimate D2E/DX2                !
 ! A2    A(1,2,4)              109.7954         estimate D2E/DX2                !
 ! A3    A(1,2,6)              116.5868         estimate D2E/DX2                !
 ! A4    A(4,2,6)              133.5057         estimate D2E/DX2                !
 ! A5    A(1,3,5)              109.7954         estimate D2E/DX2                !
 ! A6    A(1,3,7)              116.5868         estimate D2E/DX2                !
 ! A7    A(5,3,7)              133.5057         estimate D2E/DX2                !
 ! D1    D(3,1,2,4)           -152.9233         estimate D2E/DX2                !
 ! D2    D(3,1,2,6)             30.4044         estimate D2E/DX2                !
 ! D3    D(2,1,3,5)           -152.9233         estimate D2E/DX2                !
 ! D4    D(2,1,3,7)             30.4044         estimate D2E/DX2                !
 ! D5    D(1,2,4,6)           -175.896          estimate D2E/DX2                !
 ! D6    D(1,3,5,7)           -175.896          estimate D2E/DX2                !
 --------------------------------------------------------------------------------
 Trust Radius=3.00D-01 FncErr=1.00D-07 GrdErr=1.00D-06 EigMax=2.50D+02 EigMin=1.00D-04
 Number of steps in this run=     29 maximum allowed number of steps=    100.
 GradGradGradGradGradGradGradGradGradGradGradGradGradGradGradGradGradGrad

                          Input orientation:                          
 ---------------------------------------------------------------------
 Center     Atomic      Atomic             Coordinates (Angstroms)
 Number     Number       Type             X           Y           Z
 ---------------------------------------------------------------------
      1          8           0        0.000000    0.000000    0.815752
      2          7           0        0.000000    1.275851    0.008424
      3          7           0        0.000000   -1.275851    0.008424
      4          8           0        0.507606    2.145976    0.632866
      5          8           0       -0.507606   -2.145976    0.632866
      6          8           0       -0.536629    1.235280   -1.048113
      7          8           0        0.536629   -1.235280   -1.048113
 ---------------------------------------------------------------------
                    Distance matrix (angstroms):
                    1          2          3          4          5
     1  O    0.000000
     2  N    1.509826   0.000000
     3  N    1.509826   2.551702   0.000000
     4  O    2.212764   1.185204   3.515180   0.000000
     5  O    2.212764   3.515180   1.185204   4.410386   0.000000
     6  O    2.299539   1.185701   2.776692   2.178413   3.776165
     7  O    2.299539   2.776692   1.185701   3.776165   2.178413
                    6          7
     6  O    0.000000
     7  O    2.693613   0.000000
 Stoichiometry    N2O5
 Framework group  C2[C2(O),X(N2O4)]
 Deg. of freedom     8
 Full point group                 C2      NOp   2
 Largest Abelian subgroup         C2      NOp   2
 Largest concise Abelian subgroup C2      NOp   2
                         Standard orientation:                         
 ---------------------------------------------------------------------
 Center     Atomic      Atomic             Coordinates (Angstroms)
 Number     Number       Type             X           Y           Z
 ---------------------------------------------------------------------
      1          8           0        0.000000    0.000000    0.815752
      2          7           0        0.000000    1.275851    0.008424
      3          7           0       -0.000000   -1.275851    0.008424
      4          8           0        0.507606    2.145976    0.632866
      5          8           0       -0.507606   -2.145976    0.632866
      6          8           0       -0.536629    1.235280   -1.048113
      7          8           0        0.536629   -1.235280   -1.048113
 ---------------------------------------------------------------------
 Rotational constants (GHZ):           6.7179130           1.9499390           1.6781678
 General basis read from cards:  (5D, 7F)
 There are   124 symmetry adapted cartesian basis functions of A   symmetry.
 There are   121 symmetry adapted cartesian basis functions of B   symmetry.
 There are   106 symmetry adapted basis functions of A   symmetry.
 There are   104 symmetry adapted basis functions of B   symmetry.
   210 basis functions,   357 primitive gaussians,   245 cartesian basis functions
    27 alpha electrons       27 beta electrons
       nuclear repulsion energy       316.9635865366 Hartrees.
 NAtoms=    7 NActive=    7 NUniq=    4 SFac= 3.06D+00 NAtFMM=   60 NAOKFM=F Big=F
 Integral buffers will be    131072 words long.
 Raffenetti 2 integral format.
 Two-electron integral symmetry is turned on.
 One-electron integrals computed using PRISM.
 NBasis=   210 RedAO= T EigKep=  7.81D-04  NBF=   106   104
 NBsUse=   210 1.00D-06 EigRej= -1.00D+00 NBFU=   106   104
 ExpMin= 1.21D-01 ExpMax= 1.36D+04 ExpMxC= 4.64D+02 IAcc=3 IRadAn=         5 AccDes= 0.00D+00
 Harris functional with IExCor=  402 and IRadAn=       5 diagonalized for initial guess.
 HarFok:  IExCor=  402 AccDes= 0.00D+00 IRadAn=         5 IDoV= 1 UseB2=F ITyADJ=14
 ICtDFT=  3500011 ScaDFX=  1.000000  1.000000  1.000000  1.000000
 FoFCou: FMM=F IPFlag=           0 FMFlag=      100000 FMFlg1=           0
         NFxFlg=           0 DoJE=T BraDBF=F KetDBF=T FulRan=T
         wScrn=  0.000000 ICntrl=       500 IOpCl=  0 I1Cent=   200000004 NGrid=           0
         NMat0=    1 NMatS0=      1 NMatT0=    0 NMatD0=    1 NMtDS0=    0 NMtDT0=    0
 Petite list used in FoFCou.
 Initial guess orbital symmetries:
       Occupied  (A) (B) (A) (B) (A) (B) (A) (A) (B) (A) (B) (A)
                 (B) (A) (B) (A) (B) (A) (B) (A) (A) (A) (B) (B)
                 (B) (A) (B)
       Virtual   (A) (B) (A) (B) (A) (B) (A) (B) (A) (B) (B) (A)
                 (A) (B) (A) (B) (A) (B) (A) (B) (B) (A) (B) (A)
                 (A) (A) (B) (A) (B) (B) (B) (A) (B) (A) (B) (A)
                 (A) (B) (A) (B) (A) (A) (B) (B) (A) (A) (B) (B)
                 (A) (A) (B) (B) (A) (A) (B) (B) (A) (A) (B) (B)
                 (A) (B) (B) (A) (B) (A) (B) (A) (B) (A) (B) (A)
                 (A) (A) (B) (A) (B) (B) (A) (B) (A) (B) (A) (B)
                 (B) (A) (B) (A) (A) (B) (A) (B) (A) (B) (B) (A)
                 (A) (B) (A) (B) (A) (B) (A) (B) (B) (A) (B) (A)
                 (A) (B) (B) (A) (B) (A) (B) (A) (B) (A) (A) (B)
                 (A) (A) (B) (A) (B) (A) (B) (B) (B) (A) (A) (B)
                 (A) (A) (B) (A) (B) (A) (B) (B) (B) (A) (A) (B)
                 (A) (B) (A) (B) (A) (B) (A) (B) (B) (A) (A) (B)
                 (B) (B) (A) (A) (A) (B) (A) (A) (B) (B) (A) (B)
                 (A) (A) (B) (B) (B) (A) (A) (B) (A) (A) (B) (B)
                 (A) (B) (A)
 The electronic state of the initial guess is 1-A.
 Keep R1 ints in memory in symmetry-blocked form, NReq=368205789.
 Requested convergence on RMS density matrix=1.00D-08 within 128 cycles.
 Requested convergence on MAX density matrix=1.00D-06.
 Requested convergence on             energy=1.00D-06.
 No special actions if energy rises.
 Integral accuracy reduced to 1.0D-05 until final iterations.
 Initial convergence to 1.0D-05 achieved.  Increase integral accuracy.
 SCF Done:  E(RB3LYP) =  -485.537896887     A.U. after   14 cycles
            NFock= 14  Conv=0.95D-08     -V/T= 2.0027

 **********************************************************************

            Population analysis using the SCF Density.

 **********************************************************************

 Orbital symmetries:
       Occupied  (A) (B) (A) (B) (A) (B) (A) (A) (B) (A) (B) (A)
                 (B) (A) (B) (A) (B) (A) (B) (A) (A) (B) (A) (B)
                 (B) (A) (B)
       Virtual   (A) (B) (A) (B) (A) (B) (B) (A) (A) (B) (B) (A)
                 (A) (B) (A) (B) (A) (B) (A) (B) (B) (A) (B) (A)
                 (A) (A) (B) (A) (B) (B) (B) (A) (B) (A) (B) (A)
                 (A) (B) (A) (B) (A) (A) (B) (B) (A) (B) (A) (B)
                 (A) (A) (B) (B) (A) (B) (A) (B) (A) (B) (A) (B)
                 (B) (A) (B) (A) (B) (A) (A) (B) (A) (B) (A) (B)
                 (A) (A) (B) (B) (A) (B) (A) (B) (A) (B) (A) (B)
                 (B) (A) (A) (B) (A) (B) (B) (A) (A) (B) (B) (A)
                 (A) (B) (A) (B) (A) (B) (A) (B) (B) (A) (B) (A)
                 (B) (A) (B) (A) (B) (A) (A) (B) (B) (A) (A) (B)
                 (A) (A) (B) (B) (A) (A) (B) (B) (B) (A) (A) (B)
                 (A) (A) (B) (A) (B) (A) (B) (B) (B) (A) (A) (B)
                 (B) (A) (A) (B) (B) (A) (A) (B) (A) (A) (B) (B)
                 (B) (B) (A) (A) (A) (A) (B) (B) (A) (B) (A) (B)
                 (A) (A) (B) (B) (A) (B) (A) (B) (A) (A) (B) (B)
                 (A) (B) (A)
 The electronic state is 1-A.
 Alpha  occ. eigenvalues --  -19.26341 -19.24108 -19.24108 -19.24025 -19.24025
 Alpha  occ. eigenvalues --  -14.65765 -14.65765  -1.34721  -1.32737  -1.17213
 Alpha  occ. eigenvalues --   -1.16744  -1.08641  -0.77652  -0.66969  -0.64281
 Alpha  occ. eigenvalues --   -0.62620  -0.62526  -0.59657  -0.58999  -0.56619
 Alpha  occ. eigenvalues --   -0.41864  -0.41585  -0.40115  -0.39879  -0.38436
 Alpha  occ. eigenvalues --   -0.37629  -0.36256
 Alpha virt. eigenvalues --   -0.12744  -0.10750  -0.06640  -0.01163   0.08729
 Alpha virt. eigenvalues --    0.12627   0.17595   0.17652   0.21744   0.23897
 Alpha virt. eigenvalues --    0.24729   0.25584   0.26661   0.29461   0.31302
 Alpha virt. eigenvalues --    0.32920   0.35562   0.36815   0.37245   0.38330
 Alpha virt. eigenvalues --    0.39702   0.41711   0.42130   0.43045   0.44280
 Alpha virt. eigenvalues --    0.44865   0.48232   0.49199   0.50211   0.51883
 Alpha virt. eigenvalues --    0.58952   0.65340   0.80478   0.82651   0.84539
 Alpha virt. eigenvalues --    0.90336   0.93109   1.06342   1.09014   1.10881
 Alpha virt. eigenvalues --    1.15300   1.18898   1.27265   1.30911   1.38733
 Alpha virt. eigenvalues --    1.41276   1.42094   1.44690   1.46459   1.47243
 Alpha virt. eigenvalues --    1.51335   1.52540   1.58719   1.62101   1.62927
 Alpha virt. eigenvalues --    1.67269   1.73086   1.74627   1.75650   1.81095
 Alpha virt. eigenvalues --    1.83879   1.83988   1.88568   1.91535   1.93924
 Alpha virt. eigenvalues --    1.94706   1.99475   2.00502   2.04355   2.06776
 Alpha virt. eigenvalues --    2.07334   2.08778   2.11113   2.19603   2.21743
 Alpha virt. eigenvalues --    2.26776   2.27594   2.28980   2.41020   2.42451
 Alpha virt. eigenvalues --    2.43684   2.45827   2.50629   2.50849   2.58094
 Alpha virt. eigenvalues --    2.70599   2.83901   2.86947   2.89201   2.90527
 Alpha virt. eigenvalues --    2.98507   2.98955   3.03030   3.19198   3.31418
 Alpha virt. eigenvalues --    3.34174   3.42814   3.44250   3.50045   3.51122
 Alpha virt. eigenvalues --    3.58070   3.73979   3.74568   3.78632   3.80591
 Alpha virt. eigenvalues --    3.82743   3.87752   3.89619   3.91263   3.91364
 Alpha virt. eigenvalues --    3.91401   3.91696   3.92664   3.94105   3.96131
 Alpha virt. eigenvalues --    3.96663   4.16995   4.21514   4.26172   4.36795
 Alpha virt. eigenvalues --    4.41883   4.45005   4.46444   4.50709   4.50892
 Alpha virt. eigenvalues --    4.51311   4.54703   4.62046   4.73997   4.77134
 Alpha virt. eigenvalues --    4.83560   4.84235   4.95334   4.96881   4.99624
 Alpha virt. eigenvalues --    5.10535   5.11501   5.11948   5.17893   5.28407
 Alpha virt. eigenvalues --    5.44829   5.45719   5.76206   5.78660   5.85231
 Alpha virt. eigenvalues --    5.85662   5.91868   5.92412   5.93708   5.93794
 Alpha virt. eigenvalues --    5.96745   5.97175   5.98778   6.00970   6.01032
 Alpha virt. eigenvalues --    6.09480   6.15772   6.21652   6.23055   6.24412
 Alpha virt. eigenvalues --    6.32558   6.34764   6.36010   6.40894   6.43432
 Alpha virt. eigenvalues --    6.44383   6.45798   6.47106   6.47574   6.53097
 Alpha virt. eigenvalues --    6.53823   6.63396   6.77556   6.77580   6.91355
 Alpha virt. eigenvalues --    7.11498   7.16479   7.42994   7.46961   7.69362
 Alpha virt. eigenvalues --    7.95959   8.80760   8.93589
          Condensed to atoms (all electrons):
               1          2          3          4          5          6
     1  O    8.268228   0.168094   0.168094  -0.099202  -0.099202  -0.093254
     2  N    0.168094   5.371228  -0.011010   0.443021   0.002979   0.436800
     3  N    0.168094  -0.011010   5.371228   0.002979   0.443021   0.001495
     4  O   -0.099202   0.443021   0.002979   8.007268  -0.001206  -0.120499
     5  O   -0.099202   0.002979   0.443021  -0.001206   8.007268  -0.001024
     6  O   -0.093254   0.436800   0.001495  -0.120499  -0.001024   8.033327
     7  O   -0.093254   0.001495   0.436800  -0.001024  -0.120499  -0.010543
               7
     1  O   -0.093254
     2  N    0.001495
     3  N    0.436800
     4  O   -0.001024
     5  O   -0.120499
     6  O   -0.010543
     7  O    8.033327
 Mulliken charges:
               1
     1  O   -0.219504
     2  N    0.587393
     3  N    0.587393
     4  O   -0.231338
     5  O   -0.231338
     6  O   -0.246302
     7  O   -0.246302
 Sum of Mulliken charges =  -0.00000
 Mulliken charges with hydrogens summed into heavy atoms:
               1
     1  O   -0.219504
     2  N    0.587393
     3  N    0.587393
     4  O   -0.231338
     5  O   -0.231338
     6  O   -0.246302
     7  O   -0.246302
 Electronic spatial extent (au):  <R**2>=            654.6806
 Charge=             -0.0000 electrons
 Dipole moment (field-independent basis, Debye):
    X=              0.0000    Y=              0.0000    Z=             -0.0055  Tot=              0.0055
 Quadrupole moment (field-independent basis, Debye-Ang):
   XX=            -36.4381   YY=            -40.4413   ZZ=            -40.3299
   XY=             -1.2124   XZ=             -0.0000   YZ=              0.0000
 Traceless Quadrupole moment (field-independent basis, Debye-Ang):
   XX=              2.6317   YY=             -1.3715   ZZ=             -1.2602
   XY=             -1.2124   XZ=             -0.0000   YZ=              0.0000
 Octapole moment (field-independent basis, Debye-Ang**2):
  XXX=              0.0000  YYY=              0.0000  ZZZ=             -0.1204  XYY=              0.0000
  XXY=              0.0000  XXZ=             -0.1858  XZZ=              0.0000  YZZ=              0.0000
  YYZ=             -1.2754  XYZ=             -3.8212
 Hexadecapole moment (field-independent basis, Debye-Ang**3):
 XXXX=            -62.4944 YYYY=           -550.4030 ZZZZ=           -149.2870 XXXY=            -13.9727
 XXXZ=             -0.0000 YYYX=            -22.6279 YYYZ=              0.0000 ZZZX=             -0.0000
 ZZZY=             -0.0000 XXYY=            -96.2510 XXZZ=            -35.7299 YYZZ=           -116.5766
 XXYZ=              0.0000 YYXZ=             -0.0000 ZZXY=             -4.2559
 N-N= 3.169635865366D+02 E-N=-1.777394025712D+03  KE= 4.842116029213D+02
 Symmetry A    KE= 2.715604063097D+02
 Symmetry B    KE= 2.126511966116D+02
 Calling FoFJK, ICntrl=      2127 FMM=F ISym2X=1 I1Cent= 0 IOpClX= 0 NMat=1 NMatS=1 NMatT=0.
 ***** Axes restored to original set *****
 -------------------------------------------------------------------
 Center     Atomic                   Forces (Hartrees/Bohr)
 Number     Number              X              Y              Z
 -------------------------------------------------------------------
      1        8          -0.000000000    0.000000000   -0.000542081
      2        7           0.000060472    0.000147538    0.000269017
      3        7          -0.000060472   -0.000147538    0.000269017
      4        8          -0.000047594   -0.000082361   -0.000292683
      5        8           0.000047594    0.000082361   -0.000292683
      6        8          -0.000048679    0.000078256    0.000294706
      7        8           0.000048679   -0.000078256    0.000294706
 -------------------------------------------------------------------
 Cartesian Forces:  Max     0.000542081 RMS     0.000203488

 GradGradGradGradGradGradGradGradGradGradGradGradGradGradGradGradGradGrad
 Berny optimization.
 FormGI is forming the generalized inverse of G from B-inverse, IUseBI=4.
 Internal  Forces:  Max     0.000622158 RMS     0.000244807
 Search for a local minimum.
 Step number   1 out of a maximum of   29
 All quantities printed in internal units (Hartrees-Bohrs-Radians)
 Mixed Optimization -- En-DIIS/RFO-DIIS
 Second derivative matrix not updated -- first step.
 The second derivative matrix:
                          R1        R2        R3        R4        R5
           R1           0.31368
           R2           0.00000   0.31368
           R3           0.00000   0.00000   1.12623
           R4           0.00000   0.00000   0.00000   1.12349
           R5           0.00000   0.00000   0.00000   0.00000   1.12623
           R6           0.00000   0.00000   0.00000   0.00000   0.00000
           A1           0.00000   0.00000   0.00000   0.00000   0.00000
           A2           0.00000   0.00000   0.00000   0.00000   0.00000
           A3           0.00000   0.00000   0.00000   0.00000   0.00000
           A4           0.00000   0.00000   0.00000   0.00000   0.00000
           A5           0.00000   0.00000   0.00000   0.00000   0.00000
           A6           0.00000   0.00000   0.00000   0.00000   0.00000
           A7           0.00000   0.00000   0.00000   0.00000   0.00000
           D1           0.00000   0.00000   0.00000   0.00000   0.00000
           D2           0.00000   0.00000   0.00000   0.00000   0.00000
           D3           0.00000   0.00000   0.00000   0.00000   0.00000
           D4           0.00000   0.00000   0.00000   0.00000   0.00000
           D5           0.00000   0.00000   0.00000   0.00000   0.00000
           D6           0.00000   0.00000   0.00000   0.00000   0.00000
                          R6        A1        A2        A3        A4
           R6           1.12349
           A1           0.00000   0.25000
           A2           0.00000   0.00000   0.25000
           A3           0.00000   0.00000   0.00000   0.25000
           A4           0.00000   0.00000   0.00000   0.00000   0.25000
           A5           0.00000   0.00000   0.00000   0.00000   0.00000
           A6           0.00000   0.00000   0.00000   0.00000   0.00000
           A7           0.00000   0.00000   0.00000   0.00000   0.00000
           D1           0.00000   0.00000   0.00000   0.00000   0.00000
           D2           0.00000   0.00000   0.00000   0.00000   0.00000
           D3           0.00000   0.00000   0.00000   0.00000   0.00000
           D4           0.00000   0.00000   0.00000   0.00000   0.00000
           D5           0.00000   0.00000   0.00000   0.00000   0.00000
           D6           0.00000   0.00000   0.00000   0.00000   0.00000
                          A5        A6        A7        D1        D2
           A5           0.25000
           A6           0.00000   0.25000
           A7           0.00000   0.00000   0.25000
           D1           0.00000   0.00000   0.00000   0.00230
           D2           0.00000   0.00000   0.00000   0.00000   0.00230
           D3           0.00000   0.00000   0.00000   0.00000   0.00000
           D4           0.00000   0.00000   0.00000   0.00000   0.00000
           D5           0.00000   0.00000   0.00000   0.00000   0.00000
           D6           0.00000   0.00000   0.00000   0.00000   0.00000
                          D3        D4        D5        D6
           D3           0.00230
           D4           0.00000   0.00230
           D5           0.00000   0.00000   0.04136
           D6           0.00000   0.00000   0.00000   0.04136
 ITU=  0
     Eigenvalues ---    0.00230   0.00230   0.03186   0.03186   0.24967
     Eigenvalues ---    0.24967   0.25000   0.25000   0.25000   0.31368
     Eigenvalues ---    0.31368   1.12349   1.12349   1.12623   1.12623
 RFO step:  Lambda=-1.35956512D-04 EMin= 2.30000000D-03
 Linear search not attempted -- first point.
 Iteration  1 RMS(Cart)=  0.10500255 RMS(Int)=  0.00532862
 Iteration  2 RMS(Cart)=  0.00566699 RMS(Int)=  0.00000927
 Iteration  3 RMS(Cart)=  0.00001249 RMS(Int)=  0.00000021
 Iteration  4 RMS(Cart)=  0.00000000 RMS(Int)=  0.00000021
 ClnCor:  largest displacement from symmetrization is 4.63D-11 for atom     7.
 Variable       Old X    -DE/DX   Delta X   Delta X   Delta X     New X
                                 (Linear)    (Quad)   (Total)
    R1        2.85316  -0.00002   0.00000  -0.00008  -0.00008   2.85308
    R2        2.85316  -0.00002   0.00000  -0.00008  -0.00008   2.85308
    R3        2.23971  -0.00023   0.00000  -0.00021  -0.00021   2.23950
    R4        2.24065  -0.00024   0.00000  -0.00022  -0.00022   2.24043
    R5        2.23971  -0.00023   0.00000  -0.00021  -0.00021   2.23950
    R6        2.24065  -0.00024   0.00000  -0.00022  -0.00022   2.24043
    A1        2.01325   0.00062   0.00000   0.00249   0.00249   2.01574
    A2        1.91629   0.00025   0.00000   0.00097   0.00097   1.91726
    A3        2.03482  -0.00010   0.00000  -0.00043  -0.00043   2.03440
    A4        2.33011  -0.00015   0.00000  -0.00063  -0.00063   2.32948
    A5        1.91629   0.00025   0.00000   0.00097   0.00097   1.91726
    A6        2.03482  -0.00010   0.00000  -0.00043  -0.00043   2.03440
    A7        2.33011  -0.00015   0.00000  -0.00063  -0.00063   2.32948
    D1       -2.66901   0.00026   0.00000   0.11627   0.11627  -2.55275
    D2        0.53066   0.00031   0.00000   0.11759   0.11759   0.64825
    D3       -2.66901   0.00026   0.00000   0.11627   0.11627  -2.55275
    D4        0.53066   0.00031   0.00000   0.11759   0.11759   0.64825
    D5       -3.06996   0.00005   0.00000   0.00160   0.00160  -3.06836
    D6       -3.06996   0.00005   0.00000   0.00160   0.00160  -3.06836
         Item               Value     Threshold  Converged?
 Maximum Force            0.000622     0.000450     NO 
 RMS     Force            0.000245     0.000300     YES
 Maximum Displacement     0.238656     0.001800     NO 
 RMS     Displacement     0.105647     0.001200     NO 
 Predicted change in Energy=-7.169780D-05
 GradGradGradGradGradGradGradGradGradGradGradGradGradGradGradGradGradGrad

                          Input orientation:                          
 ---------------------------------------------------------------------
 Center     Atomic      Atomic             Coordinates (Angstroms)
 Number     Number       Type             X           Y           Z
 ---------------------------------------------------------------------
      1          8           0       -0.000000   -0.000000    0.813394
      2          7           0       -0.022785    1.276617    0.007675
      3          7           0        0.022785   -1.276617    0.007675
      4          8           0        0.581309    2.122541    0.576824
      5          8           0       -0.581309   -2.122541    0.576824
      6          8           0       -0.662920    1.262423   -0.990143
      7          8           0        0.662920   -1.262423   -0.990143
 ---------------------------------------------------------------------
                    Distance matrix (angstroms):
                    1          2          3          4          5
     1  O    0.000000
     2  N    1.509786   0.000000
     3  N    1.509786   2.553640   0.000000
     4  O    2.213383   1.185094   3.491440   0.000000
     5  O    2.213383   3.491440   1.185094   4.401409   0.000000
     6  O    2.299113   1.185587   2.812927   2.177911   3.730955
     7  O    2.299113   2.812927   1.185587   3.730955   2.177911
                    6          7
     6  O    0.000000
     7  O    2.851789   0.000000
 Stoichiometry    N2O5
 Framework group  C2[C2(O),X(N2O4)]
 Deg. of freedom     8
 Full point group                 C2      NOp   2
 Largest Abelian subgroup         C2      NOp   2
 Largest concise Abelian subgroup C2      NOp   2
                         Standard orientation:                         
 ---------------------------------------------------------------------
 Center     Atomic      Atomic             Coordinates (Angstroms)
 Number     Number       Type             X           Y           Z
 ---------------------------------------------------------------------
      1          8           0        0.000000    0.000000    0.813366
      2          7           0        0.000000    1.276820    0.007647
      3          7           0       -0.000000   -1.276820    0.007647
      4          8           0        0.619093    2.111829    0.576796
      5          8           0       -0.619093   -2.111829    0.576796
      6          8           0       -0.640287    1.274052   -0.990171
      7          8           0        0.640287   -1.274052   -0.990171
 ---------------------------------------------------------------------
 Rotational constants (GHZ):           6.5786763           1.9025785           1.7190461
 Basis read from rwf:  (5D, 7F)
 There are   124 symmetry adapted cartesian basis functions of A   symmetry.
 There are   121 symmetry adapted cartesian basis functions of B   symmetry.
 There are   106 symmetry adapted basis functions of A   symmetry.
 There are   104 symmetry adapted basis functions of B   symmetry.
   210 basis functions,   357 primitive gaussians,   245 cartesian basis functions
    27 alpha electrons       27 beta electrons
       nuclear repulsion energy       316.3458004391 Hartrees.
 NAtoms=    7 NActive=    7 NUniq=    4 SFac= 3.06D+00 NAtFMM=   60 NAOKFM=F Big=F
 Integral buffers will be    131072 words long.
 Raffenetti 2 integral format.
 Two-electron integral symmetry is turned on.
 One-electron integrals computed using PRISM.
 NBasis=   210 RedAO= T EigKep=  7.85D-04  NBF=   106   104
 NBsUse=   210 1.00D-06 EigRej= -1.00D+00 NBFU=   106   104
 Initial guess from the checkpoint file:  "/wrk/irikura/Gau-17519.chk"
 B after Tr=     0.000000    0.000000    0.000000
         Rot=    0.999958   -0.000000   -0.000000    0.009117 Ang=   1.04 deg.
 Initial guess orbital symmetries:
       Occupied  (A) (B) (A) (B) (A) (B) (A) (A) (B) (A) (B) (A)
                 (B) (A) (B) (A) (B) (A) (B) (A) (A) (B) (A) (B)
                 (B) (A) (B)
       Virtual   (A) (B) (A) (B) (A) (B) (B) (A) (A) (B) (B) (A)
                 (A) (B) (A) (B) (A) (B) (A) (B) (B) (A) (B) (A)
                 (A) (A) (B) (A) (B) (B) (B) (A) (B) (A) (B) (A)
                 (A) (B) (A) (B) (A) (A) (B) (B) (A) (B) (A) (B)
                 (A) (A) (B) (B) (A) (B) (A) (B) (A) (B) (A) (B)
                 (B) (A) (B) (A) (B) (A) (A) (B) (A) (B) (A) (B)
                 (A) (A) (B) (B) (A) (B) (A) (B) (A) (B) (A) (B)
                 (B) (A) (A) (B) (A) (B) (B) (A) (A) (B) (B) (A)
                 (A) (B) (A) (B) (A) (B) (A) (B) (B) (A) (B) (A)
                 (B) (A) (B) (A) (B) (A) (A) (B) (B) (A) (A) (B)
                 (A) (A) (B) (B) (A) (A) (B) (B) (B) (A) (A) (B)
                 (A) (A) (B) (A) (B) (A) (B) (B) (B) (A) (A) (B)
                 (B) (A) (A) (B) (B) (A) (A) (B) (A) (A) (B) (B)
                 (B) (B) (A) (A) (A) (A) (B) (B) (A) (B) (A) (B)
                 (A) (A) (B) (B) (A) (B) (A) (B) (A) (A) (B) (B)
                 (A) (B) (A)
 ExpMin= 1.21D-01 ExpMax= 1.36D+04 ExpMxC= 4.64D+02 IAcc=3 IRadAn=         5 AccDes= 0.00D+00
 Harris functional with IExCor=  402 and IRadAn=       5 diagonalized for initial guess.
 HarFok:  IExCor=  402 AccDes= 0.00D+00 IRadAn=         5 IDoV= 1 UseB2=F ITyADJ=14
 ICtDFT=  3500011 ScaDFX=  1.000000  1.000000  1.000000  1.000000
 FoFCou: FMM=F IPFlag=           0 FMFlag=      100000 FMFlg1=           0
         NFxFlg=           0 DoJE=T BraDBF=F KetDBF=T FulRan=T
         wScrn=  0.000000 ICntrl=       500 IOpCl=  0 I1Cent=   200000004 NGrid=           0
         NMat0=    1 NMatS0=      1 NMatT0=    0 NMatD0=    1 NMtDS0=    0 NMtDT0=    0
 Petite list used in FoFCou.
 Keep R1 ints in memory in symmetry-blocked form, NReq=368205789.
 Requested convergence on RMS density matrix=1.00D-08 within 128 cycles.
 Requested convergence on MAX density matrix=1.00D-06.
 Requested convergence on             energy=1.00D-06.
 No special actions if energy rises.
 Integral accuracy reduced to 1.0D-05 until final iterations.
 Initial convergence to 1.0D-05 achieved.  Increase integral accuracy.
 SCF Done:  E(RB3LYP) =  -485.537434333     A.U. after   14 cycles
            NFock= 14  Conv=0.77D-08     -V/T= 2.0027
 Calling FoFJK, ICntrl=      2127 FMM=F ISym2X=1 I1Cent= 0 IOpClX= 0 NMat=1 NMatS=1 NMatT=0.
 ***** Axes restored to original set *****
 -------------------------------------------------------------------
 Center     Atomic                   Forces (Hartrees/Bohr)
 Number     Number              X              Y              Z
 -------------------------------------------------------------------
      1        8          -0.000000000    0.000000000   -0.000304029
      2        7           0.003372253   -0.000309395    0.001630978
      3        7          -0.003372253    0.000309395    0.001630978
      4        8          -0.000958825    0.001023066   -0.000537583
      5        8           0.000958825   -0.001023066   -0.000537583
      6        8          -0.000000772   -0.002519849   -0.000941381
      7        8           0.000000772    0.002519849   -0.000941381
 -------------------------------------------------------------------
 Cartesian Forces:  Max     0.003372253 RMS     0.001501268

 GradGradGradGradGradGradGradGradGradGradGradGradGradGradGradGradGradGrad
 Berny optimization.
 Using GEDIIS/GDIIS optimizer.
 FormGI is forming the generalized inverse of G from B-inverse, IUseBI=4.
 Internal  Forces:  Max     0.009160233 RMS     0.003004928
 Search for a local minimum.
 Step number   2 out of a maximum of   29
 All quantities printed in internal units (Hartrees-Bohrs-Radians)
 Mixed Optimization -- RFO/linear search
 Update second derivatives using D2CorX and points    2    1
 DE=  4.63D-04 DEPred=-7.17D-05 R=-6.45D+00
 Trust test=-6.45D+00 RLast= 2.34D-01 DXMaxT set to 1.50D-01
 The second derivative matrix:
                          R1        R2        R3        R4        R5
           R1           0.31596
           R2           0.00228   0.31596
           R3          -0.00035  -0.00035   1.12585
           R4          -0.00155  -0.00155  -0.00024   1.12402
           R5          -0.00035  -0.00035  -0.00039  -0.00024   1.12585
           R6          -0.00155  -0.00155  -0.00024   0.00053  -0.00024
           A1           0.01389   0.01389  -0.00072  -0.00788  -0.00072
           A2          -0.00457  -0.00457   0.00107   0.00350   0.00107
           A3           0.00584   0.00584  -0.00099  -0.00406  -0.00099
           A4          -0.00130  -0.00130  -0.00012   0.00054  -0.00012
           A5          -0.00457  -0.00457   0.00107   0.00350   0.00107
           A6           0.00584   0.00584  -0.00099  -0.00406  -0.00099
           A7          -0.00130  -0.00130  -0.00012   0.00054  -0.00012
           D1           0.00323   0.00323   0.00006  -0.00158   0.00006
           D2           0.00370   0.00370   0.00000  -0.00189   0.00000
           D3           0.00323   0.00323   0.00006  -0.00158   0.00006
           D4           0.00370   0.00370   0.00000  -0.00189   0.00000
           D5           0.00029   0.00029   0.00008  -0.00006   0.00008
           D6           0.00029   0.00029   0.00008  -0.00006   0.00008
                          R6        A1        A2        A3        A4
           R6           1.12402
           A1          -0.00788   0.33011
           A2           0.00350  -0.02905   0.25889
           A3          -0.00406   0.03590  -0.01166   0.26497
           A4           0.00054  -0.00691   0.00287  -0.00340   0.25051
           A5           0.00350  -0.02905   0.00889  -0.01166   0.00287
           A6          -0.00406   0.03590  -0.01166   0.01497  -0.00340
           A7           0.00054  -0.00691   0.00287  -0.00340   0.00051
           D1          -0.00158   0.01789  -0.00694   0.00839  -0.00144
           D2          -0.00189   0.02072  -0.00790   0.00960  -0.00170
           D3          -0.00158   0.01789  -0.00694   0.00839  -0.00144
           D4          -0.00189   0.02072  -0.00790   0.00960  -0.00170
           D5          -0.00006   0.00135  -0.00069   0.00077  -0.00007
           D6          -0.00006   0.00135  -0.00069   0.00077  -0.00007
                          A5        A6        A7        D1        D2
           A5           0.25889
           A6          -0.01166   0.26497
           A7           0.00287  -0.00340   0.25051
           D1          -0.00694   0.00839  -0.00144   0.00617
           D2          -0.00790   0.00960  -0.00170   0.00452   0.00757
           D3          -0.00694   0.00839  -0.00144   0.00387   0.00452
           D4          -0.00790   0.00960  -0.00170   0.00452   0.00527
           D5          -0.00069   0.00077  -0.00007   0.00025   0.00030
           D6          -0.00069   0.00077  -0.00007   0.00025   0.00030
                          D3        D4        D5        D6
           D3           0.00617
           D4           0.00452   0.00757
           D5           0.00025   0.00030   0.04136
           D6           0.00025   0.00030  -0.00000   0.04136
 ITU= -1  0
 Use linear search instead of GDIIS.
     Eigenvalues ---    0.00230   0.01326   0.03186   0.03194   0.24627
     Eigenvalues ---    0.24966   0.24970   0.25000   0.30998   0.31368
     Eigenvalues ---    0.39770   1.12349   1.12469   1.12570   1.12623
 RFO step:  Lambda=-6.38347191D-06 EMin= 2.30000000D-03
 Quartic linear search produced a step of -0.89344.
 Iteration  1 RMS(Cart)=  0.08908560 RMS(Int)=  0.00382760
 Iteration  2 RMS(Cart)=  0.00405803 RMS(Int)=  0.00000470
 Iteration  3 RMS(Cart)=  0.00000606 RMS(Int)=  0.00000014
 Iteration  4 RMS(Cart)=  0.00000000 RMS(Int)=  0.00000014
 ClnCor:  largest displacement from symmetrization is 8.07D-11 for atom     5.
 Variable       Old X    -DE/DX   Delta X   Delta X   Delta X     New X
                                 (Linear)    (Quad)   (Total)
    R1        2.85308  -0.00164   0.00007  -0.00063  -0.00056   2.85252
    R2        2.85308  -0.00164   0.00007  -0.00063  -0.00056   2.85252
    R3        2.23950  -0.00002   0.00019  -0.00020  -0.00001   2.23949
    R4        2.24043   0.00082   0.00019  -0.00013   0.00007   2.24050
    R5        2.23950  -0.00002   0.00019  -0.00020  -0.00001   2.23949
    R6        2.24043   0.00082   0.00019  -0.00013   0.00007   2.24050
    A1        2.01574  -0.00916  -0.00222  -0.00155  -0.00378   2.01196
    A2        1.91726   0.00353  -0.00087   0.00243   0.00156   1.91883
    A3        2.03440  -0.00427   0.00038  -0.00221  -0.00183   2.03256
    A4        2.32948   0.00075   0.00056  -0.00026   0.00030   2.32978
    A5        1.91726   0.00353  -0.00087   0.00243   0.00156   1.91883
    A6        2.03440  -0.00427   0.00038  -0.00221  -0.00183   2.03256
    A7        2.32948   0.00075   0.00056  -0.00026   0.00030   2.32978
    D1       -2.55275  -0.00200  -0.10388   0.00486  -0.09902  -2.65176
    D2        0.64825  -0.00228  -0.10506   0.00550  -0.09956   0.54868
    D3       -2.55275  -0.00200  -0.10388   0.00486  -0.09902  -2.65176
    D4        0.64825  -0.00228  -0.10506   0.00550  -0.09956   0.54868
    D5       -3.06836  -0.00015  -0.00143   0.00084  -0.00059  -3.06895
    D6       -3.06836  -0.00015  -0.00143   0.00084  -0.00059  -3.06895
         Item               Value     Threshold  Converged?
 Maximum Force            0.009160     0.000450     NO 
 RMS     Force            0.003005     0.000300     NO 
 Maximum Displacement     0.201970     0.001800     NO 
 RMS     Displacement     0.089448     0.001200     NO 
 Predicted change in Energy=-1.114813D-05
 GradGradGradGradGradGradGradGradGradGradGradGradGradGradGradGradGradGrad

                          Input orientation:                          
 ---------------------------------------------------------------------
 Center     Atomic      Atomic             Coordinates (Angstroms)
 Number     Number       Type             X           Y           Z
 ---------------------------------------------------------------------
      1          8           0       -0.000000   -0.000000    0.816760
      2          7           0       -0.002507    1.275043    0.008791
      3          7           0        0.002507   -1.275043    0.008791
      4          8           0        0.519915    2.143652    0.622815
      5          8           0       -0.519915   -2.143652    0.622815
      6          8           0       -0.556042    1.235392   -1.038933
      7          8           0        0.556042   -1.235392   -1.038933
 ---------------------------------------------------------------------
                    Distance matrix (angstroms):
                    1          2          3          4          5
     1  O    0.000000
     2  N    1.509488   0.000000
     3  N    1.509488   2.550090   0.000000
     4  O    2.214310   1.185087   3.511724   0.000000
     5  O    2.214310   3.511724   1.185087   4.411600   0.000000
     6  O    2.297602   1.185622   2.777046   2.178079   3.765720
     7  O    2.297602   2.777046   1.185622   3.765720   2.178079
                    6          7
     6  O    0.000000
     7  O    2.709522   0.000000
 Stoichiometry    N2O5
 Framework group  C2[C2(O),X(N2O4)]
 Deg. of freedom     8
 Full point group                 C2      NOp   2
 Largest Abelian subgroup         C2      NOp   2
 Largest concise Abelian subgroup C2      NOp   2
                         Standard orientation:                         
 ---------------------------------------------------------------------
 Center     Atomic      Atomic             Coordinates (Angstroms)
 Number     Number       Type             X           Y           Z
 ---------------------------------------------------------------------
      1          8           0       -0.000000   -0.000000    0.816774
      2          7           0       -0.000000    1.275045    0.008804
      3          7           0       -0.000000   -1.275045    0.008804
      4          8           0        0.524128    2.142625    0.622829
      5          8           0       -0.524128   -2.142625    0.622829
      6          8           0       -0.553613    1.236483   -1.038919
      7          8           0        0.553613   -1.236483   -1.038919
 ---------------------------------------------------------------------
 Rotational constants (GHZ):           6.7095080           1.9445704           1.6857749
 Basis read from rwf:  (5D, 7F)
 There are   124 symmetry adapted cartesian basis functions of A   symmetry.
 There are   121 symmetry adapted cartesian basis functions of B   symmetry.
 There are   106 symmetry adapted basis functions of A   symmetry.
 There are   104 symmetry adapted basis functions of B   symmetry.
   210 basis functions,   357 primitive gaussians,   245 cartesian basis functions
    27 alpha electrons       27 beta electrons
       nuclear repulsion energy       316.9829874506 Hartrees.
 NAtoms=    7 NActive=    7 NUniq=    4 SFac= 3.06D+00 NAtFMM=   60 NAOKFM=F Big=F
 Integral buffers will be    131072 words long.
 Raffenetti 2 integral format.
 Two-electron integral symmetry is turned on.
 One-electron integrals computed using PRISM.
 NBasis=   210 RedAO= T EigKep=  7.81D-04  NBF=   106   104
 NBsUse=   210 1.00D-06 EigRej= -1.00D+00 NBFU=   106   104
 Lowest energy guess from the checkpoint file:  "/wrk/irikura/Gau-17519.chk"
 B after Tr=     0.000000    0.000000    0.000000
         Rot=    0.999999    0.000000    0.000000    0.001037 Ang=   0.12 deg.
 B after Tr=     0.000000    0.000000   -0.000000
         Rot=    0.999967    0.000000    0.000000   -0.008120 Ang=  -0.93 deg.
 Initial guess orbital symmetries:
       Occupied  (A) (B) (A) (B) (B) (A) (B) (A) (A) (B) (B) (A)
                 (B) (A) (B) (A) (B) (A) (A) (B) (B) (A) (B) (A)
                 (A) (B) (A)
       Virtual   (A) (B) (A) (B) (B) (A) (B) (A) (A) (B) (B) (A)
                 (B) (A) (B) (A) (B) (A) (A) (B) (B) (A) (B) (A)
                 (A) (B) (A) (B) (B) (B) (B) (B) (B) (B) (B) (B)
                 (B) (B) (B) (B) (B) (B) (B) (B) (B) (B) (B) (B)
                 (B) (B) (B) (B) (B) (B) (B) (B) (B) (B) (B) (B)
                 (B) (B) (B) (B) (B) (B) (B) (B) (B) (B) (B) (B)
                 (B) (B) (B) (B) (B) (B) (B) (B) (B) (B) (B) (B)
                 (B) (B) (B) (B) (B) (B) (B) (B) (B) (B) (B) (B)
                 (B) (B) (B) (B) (B) (B) (B) (B) (B) (B) (B) (B)
                 (B) (B) (B) (B) (B) (B) (B) (B) (B) (B) (B) (B)
                 (B) (B) (B) (B) (B) (B) (B) (B) (B) (B) (B) (B)
                 (B) (B) (B) (B) (B) (B) (B) (B) (B) (B) (B) (B)
                 (B) (B) (B) (B) (B) (B) (B) (B) (B) (B) (B) (B)
                 (B) (B) (B) (B) (B) (B) (B) (B) (B) (B) (B) (B)
                 (B) (B) (B) (B) (B) (B) (B) (B) (B) (B) (B) (B)
                 (B) (B) (B)
 Keep R1 ints in memory in symmetry-blocked form, NReq=368205789.
 Requested convergence on RMS density matrix=1.00D-08 within 128 cycles.
 Requested convergence on MAX density matrix=1.00D-06.
 Requested convergence on             energy=1.00D-06.
 No special actions if energy rises.
 Integral accuracy reduced to 1.0D-05 until final iterations.
 An orbital has undefined symmetry, so N**3 symmetry is turned off.
 Initial convergence to 1.0D-05 achieved.  Increase integral accuracy.
 SCF Done:  E(RB3LYP) =  -485.537908957     A.U. after   11 cycles
            NFock= 11  Conv=0.46D-08     -V/T= 2.0027
 Calling FoFJK, ICntrl=      2127 FMM=F ISym2X=1 I1Cent= 0 IOpClX= 0 NMat=1 NMatS=1 NMatT=0.
 ***** Axes restored to original set *****
 -------------------------------------------------------------------
 Center     Atomic                   Forces (Hartrees/Bohr)
 Number     Number              X              Y              Z
 -------------------------------------------------------------------
      1        8          -0.000000000    0.000000000    0.000091107
      2        7           0.000168818   -0.000049750    0.000209547
      3        7          -0.000168818    0.000049750    0.000209547
      4        8          -0.000054211   -0.000137799   -0.000087356
      5        8           0.000054211    0.000137799   -0.000087356
      6        8          -0.000102466   -0.000082849   -0.000167745
      7        8           0.000102466    0.000082849   -0.000167745
 -------------------------------------------------------------------
 Cartesian Forces:  Max     0.000209547 RMS     0.000121143

 GradGradGradGradGradGradGradGradGradGradGradGradGradGradGradGradGradGrad
 Berny optimization.
 Using GEDIIS/GDIIS optimizer.
 FormGI is forming the generalized inverse of G from B-inverse, IUseBI=4.
 Internal  Forces:  Max     0.000657073 RMS     0.000190242
 Search for a local minimum.
 Step number   3 out of a maximum of   29
 All quantities printed in internal units (Hartrees-Bohrs-Radians)
 Mixed Optimization -- En-DIIS/RFO-DIIS
 Update second derivatives using D2CorX and points    2    1    3
 DE= -1.21D-05 DEPred=-1.11D-05 R= 1.08D+00
 TightC=F SS=  1.41D+00  RLast= 3.57D-02 DXNew= 2.5227D-01 1.0704D-01
 Trust test= 1.08D+00 RLast= 3.57D-02 DXMaxT set to 1.50D-01
 The second derivative matrix:
                          R1        R2        R3        R4        R5
           R1           0.31693
           R2           0.00325   0.31693
           R3          -0.00181  -0.00181   1.12282
           R4          -0.00580  -0.00580  -0.00146   1.13159
           R5          -0.00181  -0.00181  -0.00342  -0.00146   1.12282
           R6          -0.00580  -0.00580  -0.00146   0.00810  -0.00146
           A1           0.02449   0.02449   0.00054  -0.02923   0.00054
           A2          -0.00124  -0.00124   0.00413   0.00054   0.00413
           A3           0.00460   0.00460  -0.00317  -0.00441  -0.00317
           A4          -0.00347  -0.00347  -0.00114   0.00380  -0.00114
           A5          -0.00124  -0.00124   0.00413   0.00054   0.00413
           A6           0.00460   0.00460  -0.00317  -0.00441  -0.00317
           A7          -0.00347  -0.00347  -0.00114   0.00380  -0.00114
           D1           0.00564   0.00564   0.00197  -0.00406   0.00197
           D2           0.00671   0.00671   0.00209  -0.00542   0.00209
           D3           0.00564   0.00564   0.00197  -0.00406   0.00197
           D4           0.00671   0.00671   0.00209  -0.00542   0.00209
           D5           0.00097   0.00097   0.00050  -0.00096   0.00050
           D6           0.00097   0.00097   0.00050  -0.00096   0.00050
                          R6        A1        A2        A3        A4
           R6           1.13159
           A1          -0.02923   0.38921
           A2           0.00054  -0.01920   0.25810
           A3          -0.00441   0.03564  -0.00987   0.26358
           A4           0.00380  -0.01647   0.00201  -0.00391   0.25185
           A5           0.00054  -0.01920   0.00810  -0.00987   0.00201
           A6          -0.00441   0.03564  -0.00987   0.01358  -0.00391
           A7           0.00380  -0.01647   0.00201  -0.00391   0.00185
           D1          -0.00406   0.02599  -0.00724   0.00962  -0.00228
           D2          -0.00542   0.03179  -0.00780   0.01089  -0.00299
           D3          -0.00406   0.02599  -0.00724   0.00962  -0.00228
           D4          -0.00542   0.03179  -0.00780   0.01089  -0.00299
           D5          -0.00096   0.00408  -0.00055   0.00100  -0.00042
           D6          -0.00096   0.00408  -0.00055   0.00100  -0.00042
                          A5        A6        A7        D1        D2
           A5           0.25810
           A6          -0.00987   0.26358
           A7           0.00201  -0.00391   0.25185
           D1          -0.00724   0.00962  -0.00228   0.00629
           D2          -0.00780   0.01089  -0.00299   0.00499   0.00853
           D3          -0.00724   0.00962  -0.00228   0.00399   0.00499
           D4          -0.00780   0.01089  -0.00299   0.00499   0.00623
           D5          -0.00055   0.00100  -0.00042   0.00042   0.00060
           D6          -0.00055   0.00100  -0.00042   0.00042   0.00060
                          D3        D4        D5        D6
           D3           0.00629
           D4           0.00499   0.00853
           D5           0.00042   0.00060   0.04145
           D6           0.00042   0.00060   0.00008   0.04145
 ITU=  1 -1  0
 Use linear search instead of GDIIS.
     Eigenvalues ---    0.00230   0.01034   0.03188   0.03212   0.24946
     Eigenvalues ---    0.24967   0.25000   0.26628   0.30961   0.31368
     Eigenvalues ---    0.43992   1.11923   1.12349   1.12623   1.14309
 RFO step:  Lambda=-2.90688090D-06 EMin= 2.30000000D-03
 Quartic linear search produced a step of  0.13958.
 Iteration  1 RMS(Cart)=  0.00689694 RMS(Int)=  0.00002091
 Iteration  2 RMS(Cart)=  0.00002153 RMS(Int)=  0.00000005
 Iteration  3 RMS(Cart)=  0.00000000 RMS(Int)=  0.00000005
 ClnCor:  largest displacement from symmetrization is 7.28D-13 for atom     7.
 Variable       Old X    -DE/DX   Delta X   Delta X   Delta X     New X
                                 (Linear)    (Quad)   (Total)
    R1        2.85252  -0.00020  -0.00009  -0.00077  -0.00086   2.85166
    R2        2.85252  -0.00020  -0.00009  -0.00077  -0.00086   2.85166
    R3        2.23949  -0.00017  -0.00003  -0.00018  -0.00021   2.23928
    R4        2.24050   0.00020  -0.00002   0.00020   0.00018   2.24068
    R5        2.23949  -0.00017  -0.00003  -0.00018  -0.00021   2.23928
    R6        2.24050   0.00020  -0.00002   0.00020   0.00018   2.24068
    A1        2.01196  -0.00066  -0.00018  -0.00309  -0.00327   2.00869
    A2        1.91883   0.00004   0.00035   0.00025   0.00060   1.91943
    A3        2.03256  -0.00011  -0.00032  -0.00053  -0.00085   2.03172
    A4        2.32978   0.00007  -0.00005   0.00032   0.00028   2.33006
    A5        1.91883   0.00004   0.00035   0.00025   0.00060   1.91943
    A6        2.03256  -0.00011  -0.00032  -0.00053  -0.00085   2.03172
    A7        2.32978   0.00007  -0.00005   0.00032   0.00028   2.33006
    D1       -2.65176   0.00002   0.00241   0.00444   0.00685  -2.64491
    D2        0.54868   0.00000   0.00252   0.00392   0.00643   0.55512
    D3       -2.65176   0.00002   0.00241   0.00444   0.00685  -2.64491
    D4        0.54868   0.00000   0.00252   0.00392   0.00643   0.55512
    D5       -3.06895  -0.00002   0.00014  -0.00061  -0.00047  -3.06942
    D6       -3.06895  -0.00002   0.00014  -0.00061  -0.00047  -3.06942
         Item               Value     Threshold  Converged?
 Maximum Force            0.000657     0.000450     NO 
 RMS     Force            0.000190     0.000300     YES
 Maximum Displacement     0.013286     0.001800     NO 
 RMS     Displacement     0.006898     0.001200     NO 
 Predicted change in Energy=-1.643479D-06
 GradGradGradGradGradGradGradGradGradGradGradGradGradGradGradGradGradGrad

                          Input orientation:                          
 ---------------------------------------------------------------------
 Center     Atomic      Atomic             Coordinates (Angstroms)
 Number     Number       Type             X           Y           Z
 ---------------------------------------------------------------------
      1          8           0       -0.000000   -0.000000    0.818882
      2          7           0       -0.003474    1.273335    0.009071
      3          7           0        0.003474   -1.273335    0.009071
      4          8           0        0.524846    2.141791    0.618031
      5          8           0       -0.524846   -2.141791    0.618031
      6          8           0       -0.563073    1.232487   -1.035490
      7          8           0        0.563073   -1.232487   -1.035490
 ---------------------------------------------------------------------
                    Distance matrix (angstroms):
                    1          2          3          4          5
     1  O    0.000000
     2  N    1.509035   0.000000
     3  N    1.509035   2.546679   0.000000
     4  O    2.214289   1.184977   3.507955   0.000000
     5  O    2.214289   3.507955   1.184977   4.410321   0.000000
     6  O    2.296687   1.185718   2.773306   2.178194   3.757838
     7  O    2.296687   2.773306   1.185718   3.757838   2.178194
                    6          7
     6  O    0.000000
     7  O    2.710038   0.000000
 Stoichiometry    N2O5
 Framework group  C2[C2(O),X(N2O4)]
 Deg. of freedom     8
 Full point group                 C2      NOp   2
 Largest Abelian subgroup         C2      NOp   2
 Largest concise Abelian subgroup C2      NOp   2
                         Standard orientation:                         
 ---------------------------------------------------------------------
 Center     Atomic      Atomic             Coordinates (Angstroms)
 Number     Number       Type             X           Y           Z
 ---------------------------------------------------------------------
      1          8           0        0.000000    0.000000    0.818906
      2          7           0        0.000000    1.273340    0.009095
      3          7           0       -0.000000   -1.273340    0.009095
      4          8           0        0.530687    2.140351    0.618054
      5          8           0       -0.530687   -2.140351    0.618054
      6          8           0       -0.559709    1.234019   -1.035466
      7          8           0        0.559709   -1.234019   -1.035466
 ---------------------------------------------------------------------
 Rotational constants (GHZ):           6.7055566           1.9459903           1.6911881
 Basis read from rwf:  (5D, 7F)
 There are   124 symmetry adapted cartesian basis functions of A   symmetry.
 There are   121 symmetry adapted cartesian basis functions of B   symmetry.
 There are   106 symmetry adapted basis functions of A   symmetry.
 There are   104 symmetry adapted basis functions of B   symmetry.
   210 basis functions,   357 primitive gaussians,   245 cartesian basis functions
    27 alpha electrons       27 beta electrons
       nuclear repulsion energy       317.1039014934 Hartrees.
 NAtoms=    7 NActive=    7 NUniq=    4 SFac= 3.06D+00 NAtFMM=   60 NAOKFM=F Big=F
 Integral buffers will be    131072 words long.
 Raffenetti 2 integral format.
 Two-electron integral symmetry is turned on.
 One-electron integrals computed using PRISM.
 NBasis=   210 RedAO= T EigKep=  7.81D-04  NBF=   106   104
 NBsUse=   210 1.00D-06 EigRej= -1.00D+00 NBFU=   106   104
 Initial guess from the checkpoint file:  "/wrk/irikura/Gau-17519.chk"
 B after Tr=    -0.000000   -0.000000   -0.000000
         Rot=    1.000000    0.000000    0.000000    0.000391 Ang=   0.04 deg.
 Initial guess orbital symmetries:
       Occupied  (A) (B) (A) (B) (A) (B) (A) (A) (B) (A) (B) (A)
                 (B) (A) (B) (A) (B) (A) (B) (A) (A) (B) (A) (B)
                 (B) (A) (B)
       Virtual   (A) (B) (A) (B) (A) (B) (B) (A) (A) (B) (B) (A)
                 (A) (B) (A) (B) (A) (B) (A) (B) (B) (A) (B) (A)
                 (A) (A) (B) (A) (B) (B) (B) (A) (B) (A) (B) (A)
                 (A) (B) (A) (B) (A) (A) (B) (B) (A) (B) (A) (B)
                 (A) (A) (B) (B) (A) (B) (A) (B) (A) (B) (A) (B)
                 (A) (B) (B) (A) (B) (A) (A) (B) (A) (B) (A) (B)
                 (A) (A) (B) (B) (A) (B) (A) (B) (A) (B) (A) (B)
                 (B) (A) (A) (B) (A) (B) (B) (A) (A) (B) (B) (A)
                 (A) (B) (A) (B) (A) (B) (A) (B) (B) (A) (B) (A)
                 (B) (A) (B) (A) (B) (A) (A) (B) (B) (A) (A) (B)
                 (A) (A) (B) (B) (A) (A) (B) (B) (B) (A) (A) (B)
                 (A) (A) (B) (A) (B) (A) (B) (B) (B) (A) (A) (B)
                 (B) (A) (A) (B) (B) (A) (A) (B) (A) (B) (A) (B)
                 (B) (B) (A) (A) (A) (A) (B) (B) (A) (B) (A) (B)
                 (A) (A) (B) (B) (B) (A) (A) (B) (A) (A) (B) (B)
                 (A) (B) (A)
 Keep R1 ints in memory in symmetry-blocked form, NReq=368205789.
 Requested convergence on RMS density matrix=1.00D-08 within 128 cycles.
 Requested convergence on MAX density matrix=1.00D-06.
 Requested convergence on             energy=1.00D-06.
 No special actions if energy rises.
 SCF Done:  E(RB3LYP) =  -485.537910801     A.U. after    9 cycles
            NFock=  9  Conv=0.86D-08     -V/T= 2.0027
 Calling FoFJK, ICntrl=      2127 FMM=F ISym2X=1 I1Cent= 0 IOpClX= 0 NMat=1 NMatS=1 NMatT=0.
 ***** Axes restored to original set *****
 -------------------------------------------------------------------
 Center     Atomic                   Forces (Hartrees/Bohr)
 Number     Number              X              Y              Z
 -------------------------------------------------------------------
      1        8          -0.000000000   -0.000000000    0.000007306
      2        7           0.000203899   -0.000151608    0.000183857
      3        7          -0.000203899    0.000151608    0.000183857
      4        8          -0.000051151    0.000084314   -0.000051870
      5        8           0.000051151   -0.000084314   -0.000051870
      6        8          -0.000095413    0.000017558   -0.000135640
      7        8           0.000095413   -0.000017558   -0.000135640
 -------------------------------------------------------------------
 Cartesian Forces:  Max     0.000203899 RMS     0.000114898

 GradGradGradGradGradGradGradGradGradGradGradGradGradGradGradGradGradGrad
 Berny optimization.
 Using GEDIIS/GDIIS optimizer.
 FormGI is forming the generalized inverse of G from B-inverse, IUseBI=4.
 Internal  Forces:  Max     0.000221551 RMS     0.000095067
 Search for a local minimum.
 Step number   4 out of a maximum of   29
 All quantities printed in internal units (Hartrees-Bohrs-Radians)
 Mixed Optimization -- En-DIIS/RFO-DIIS
 Swapping is turned off.
 Update second derivatives using D2CorX and points    2    1    3    4
 DE= -1.84D-06 DEPred=-1.64D-06 R= 1.12D+00
 TightC=F SS=  1.41D+00  RLast= 1.38D-02 DXNew= 2.5227D-01 4.1543D-02
 Trust test= 1.12D+00 RLast= 1.38D-02 DXMaxT set to 1.50D-01
 The second derivative matrix:
                          R1        R2        R3        R4        R5
           R1           0.31259
           R2          -0.00109   0.31259
           R3          -0.00291  -0.00291   1.12526
           R4           0.00371   0.00371   0.00762   1.12731
           R5          -0.00291  -0.00291  -0.00097   0.00762   1.12526
           R6           0.00371   0.00371   0.00762   0.00382   0.00762
           A1           0.00520   0.00520  -0.01021  -0.00223  -0.01021
           A2           0.00743   0.00743   0.01295  -0.00548   0.01295
           A3          -0.00042  -0.00042  -0.00587   0.00460  -0.00587
           A4          -0.00687  -0.00687  -0.00698   0.00047  -0.00698
           A5           0.00743   0.00743   0.01295  -0.00548   0.01295
           A6          -0.00042  -0.00042  -0.00587   0.00460  -0.00587
           A7          -0.00687  -0.00687  -0.00698   0.00047  -0.00698
           D1           0.00259   0.00259  -0.00201  -0.00530  -0.00201
           D2           0.00607   0.00607   0.00153  -0.00630   0.00153
           D3           0.00259   0.00259  -0.00201  -0.00530  -0.00201
           D4           0.00607   0.00607   0.00153  -0.00630   0.00153
           D5           0.00231   0.00231   0.00260   0.00013   0.00260
           D6           0.00231   0.00231   0.00260   0.00013   0.00260
                          R6        A1        A2        A3        A4
           R6           1.12731
[...]
 Zero-point vibrational energy      70214.5 (Joules/Mol)
                                   16.78167 (Kcal/Mol)
 Warning -- explicit consideration of   6 degrees of freedom as
           vibrations may cause significant error
 Vibrational temperatures:     63.15    88.47   308.46   484.74   546.89
          (Kelvin)            811.48   980.41  1064.12  1087.91  1167.94
                             1276.66  1861.66  1998.20  2543.79  2605.85
 
 Zero-point correction=                           0.026743 (Hartree/Particle)
 Thermal correction to Energy=                    0.033123
 Thermal correction to Enthalpy=                  0.034067
 Thermal correction to Gibbs Free Energy=        -0.004492
 Sum of electronic and zero-point Energies=           -485.511168
 Sum of electronic and thermal Energies=              -485.504788
 Sum of electronic and thermal Enthalpies=            -485.503844
 Sum of electronic and thermal Free Energies=         -485.542403
 
                     E (Thermal)             CV                S
                      KCal/Mol        Cal/Mol-Kelvin    Cal/Mol-Kelvin
 Total                   20.785             19.766             81.155
 Electronic               0.000              0.000              0.000
 Translational            0.889              2.981             39.947
 Rotational               0.889              2.981             25.701
 Vibrational             19.008             13.804             15.507
 Vibration     1          0.595              1.980              5.075
 Vibration     2          0.597              1.973              4.409
 Vibration     3          0.644              1.819              2.006
 Vibration     4          0.718              1.602              1.227
 Vibration     5          0.750              1.513              1.039
 Vibration     6          0.920              1.109              0.516
                       Q            Log10(Q)             Ln(Q)
 Total Bot       0.116439D+03          2.066099          4.757368
 Total V=0       0.232888D+15         14.367148         33.081581
 Vib (Bot)       0.285960D-10        -10.543694        -24.277753
 Vib (Bot)    1  0.471228D+01          0.673231          1.550171
 Vib (Bot)    2  0.335771D+01          0.526043          1.211258
 Vib (Bot)    3  0.924785D+00         -0.033959         -0.078194
 Vib (Bot)    4  0.552217D+00         -0.257891         -0.593815
 Vib (Bot)    5  0.475629D+00         -0.322732         -0.743118
 Vib (Bot)    6  0.274493D+00         -0.561468         -1.292828
 Vib (V=0)       0.571946D+02          1.757355          4.046459
 Vib (V=0)    1  0.523873D+01          0.719226          1.656079
 Vib (V=0)    2  0.389473D+01          0.590477          1.359624
 Vib (V=0)    3  0.155130D+01          0.190695          0.439092
 Vib (V=0)    4  0.124495D+01          0.095150          0.219091
 Vib (V=0)    5  0.119009D+01          0.075579          0.174028
 Vib (V=0)    6  0.107039D+01          0.029543          0.068025
 Electronic      0.100000D+01          0.000000          0.000000
 Translational   0.441035D+08          7.644473         17.602050
 Rotational      0.923251D+05          4.965320         11.433071
 ***** Axes restored to original set *****
 -------------------------------------------------------------------
 Center     Atomic                   Forces (Hartrees/Bohr)
 Number     Number              X              Y              Z
 -------------------------------------------------------------------
      1        8          -0.000000000    0.000000000   -0.000029246
      2        7          -0.000076330   -0.000004114    0.000107131
      3        7           0.000076330    0.000004114    0.000107131
      4        8           0.000054704    0.000012117    0.000011001
      5        8          -0.000054704   -0.000012117    0.000011001
      6        8          -0.000003232   -0.000021572   -0.000103510
      7        8           0.000003232    0.000021572   -0.000103510
 -------------------------------------------------------------------
 Cartesian Forces:  Max     0.000107131 RMS     0.000055376
 FormGI is forming the generalized inverse of G from B-inverse, IUseBI=4.

 GradGradGradGradGradGradGradGradGradGradGradGradGradGradGradGradGradGrad
 Berny optimization.
 Internal  Forces:  Max     0.000093190 RMS     0.000040222
 Search for a local minimum.
 Step number   1 out of a maximum of    2
 All quantities printed in internal units (Hartrees-Bohrs-Radians)
 Second derivative matrix not updated -- analytic derivatives used.
 The second derivative matrix:
                          R1        R2        R3        R4        R5
           R1           0.12988
           R2           0.04731   0.12988
           R3           0.06714  -0.01206   0.77160
           R4           0.06171  -0.01627   0.10144   0.76457
           R5          -0.01206   0.06714   0.00830   0.00369   0.77160
           R6          -0.01627   0.06171   0.00369   0.01642   0.10144
           A1           0.03253   0.03253   0.01897  -0.00808   0.01897
           A2           0.03021  -0.00687   0.01717  -0.05316   0.01149
           A3           0.02684  -0.00167  -0.05314   0.01171  -0.00359
           A4          -0.05711   0.00830   0.03609   0.04162  -0.00790
           A5          -0.00687   0.03021   0.01149   0.01160   0.01717
           A6          -0.00167   0.02684  -0.00359  -0.00362  -0.05314
           A7           0.00830  -0.05711  -0.00790  -0.00787   0.03609
           D1           0.00125   0.00463   0.00002   0.00082   0.00131
           D2           0.00437   0.00776  -0.00334  -0.00320   0.00171
           D3           0.00463   0.00125   0.00131  -0.00222   0.00002
           D4           0.00776   0.00437   0.00171  -0.00354  -0.00334
           D5          -0.00113   0.00451   0.00031  -0.00248   0.00008
           D6           0.00451  -0.00113   0.00008  -0.00205   0.00031
                          R6        A1        A2        A3        A4
           R6           0.76457
           A1          -0.00808   0.29442
           A2           0.01160   0.01150   0.19986
           A3          -0.00362   0.01380  -0.09745   0.20207
           A4          -0.00787  -0.02570  -0.10225  -0.10500   0.20764
           A5          -0.05316   0.01150   0.02097  -0.01315  -0.00770
           A6           0.01171   0.01380  -0.01315   0.01578  -0.00282
           A7           0.04162  -0.02570  -0.00770  -0.00282   0.01061
           D1          -0.00222   0.02013  -0.01231   0.00811   0.00540
           D2          -0.00354   0.02708  -0.01090   0.01844  -0.00874
           D3           0.00082   0.02013  -0.00467   0.00642  -0.00177
           D4          -0.00320   0.02708  -0.00604   0.00929  -0.00338
           D5          -0.00205   0.00628  -0.00184  -0.00198   0.00090
           D6          -0.00248   0.00628  -0.00175   0.00278  -0.00115
                          A5        A6        A7        D1        D2
           A5           0.19986
           A6          -0.09745   0.20207
           A7          -0.10225  -0.10500   0.20764
           D1          -0.00467   0.00642  -0.00177   0.01487
           D2          -0.00604   0.00929  -0.00338  -0.00255   0.01517
           D3          -0.01231   0.00811   0.00540   0.00433   0.00476
           D4          -0.01090   0.01844  -0.00874   0.00476   0.00675
           D5          -0.00175   0.00278  -0.00115  -0.02145   0.02061
           D6          -0.00184  -0.00198   0.00090   0.00017   0.00188
                          D3        D4        D5        D6
           D3           0.01487
           D4          -0.00255   0.01517
           D5           0.00017   0.00188   0.05211
           D6          -0.02145   0.02061   0.00193   0.05211
 ITU=  0
     Eigenvalues ---    0.00116   0.01016   0.03378   0.06737   0.07117
     Eigenvalues ---    0.14141   0.25578   0.26251   0.32009   0.32299
     Eigenvalues ---    0.38876   0.66935   0.69017   0.87784   0.89744
 Angle between quadratic step and forces=  57.92 degrees.
 Linear search not attempted -- first point.
 Iteration  1 RMS(Cart)=  0.00056578 RMS(Int)=  0.00000022
 Iteration  2 RMS(Cart)=  0.00000021 RMS(Int)=  0.00000004
 ClnCor:  largest displacement from symmetrization is 9.41D-12 for atom     5.
 Variable       Old X    -DE/DX   Delta X   Delta X   Delta X     New X
                                 (Linear)    (Quad)   (Total)
    R1        2.85138  -0.00002   0.00000  -0.00011  -0.00011   2.85128
    R2        2.85138  -0.00002   0.00000  -0.00011  -0.00011   2.85128
    R3        2.23924   0.00004   0.00000   0.00005   0.00005   2.23929
    R4        2.24087   0.00009   0.00000   0.00010   0.00010   2.24097
    R5        2.23924   0.00004   0.00000   0.00005   0.00005   2.23929
    R6        2.24087   0.00009   0.00000   0.00010   0.00010   2.24097
    A1        2.00741  -0.00002   0.00000   0.00019   0.00019   2.00759
    A2        1.92010  -0.00001   0.00000  -0.00007  -0.00007   1.92003
    A3        2.03140  -0.00000   0.00000   0.00010   0.00010   2.03150
    A4        2.32962   0.00002   0.00000   0.00001   0.00001   2.32964
    A5        1.92010  -0.00001   0.00000  -0.00007  -0.00007   1.92003
    A6        2.03140  -0.00000   0.00000   0.00010   0.00010   2.03150
    A7        2.32962   0.00002   0.00000   0.00001   0.00001   2.32964
    D1       -2.64406   0.00002   0.00000  -0.00021  -0.00021  -2.64427
    D2        0.55718  -0.00003   0.00000  -0.00084  -0.00084   0.55634
    D3       -2.64406   0.00002   0.00000  -0.00021  -0.00021  -2.64427
    D4        0.55718  -0.00003   0.00000  -0.00084  -0.00084   0.55634
    D5       -3.06794  -0.00006   0.00000  -0.00078  -0.00078  -3.06872
    D6       -3.06794  -0.00006   0.00000  -0.00078  -0.00078  -3.06872
         Item               Value     Threshold  Converged?
 Maximum Force            0.000093     0.000450     YES
 RMS     Force            0.000040     0.000300     YES
 Maximum Displacement     0.001289     0.001800     YES
 RMS     Displacement     0.000566     0.001200     YES
 Predicted change in Energy=-7.865752D-08
 Optimization completed.
    -- Stationary point found.
                           ----------------------------
                           !   Optimized Parameters   !
                           ! (Angstroms and Degrees)  !
 --------------------------                            --------------------------
 ! Name  Definition              Value          Derivative Info.                !
 --------------------------------------------------------------------------------
 ! R1    R(1,2)                  1.5089         -DE/DX =    0.0                 !
 ! R2    R(1,3)                  1.5089         -DE/DX =    0.0                 !
 ! R3    R(2,4)                  1.185          -DE/DX =    0.0                 !
 ! R4    R(2,6)                  1.1858         -DE/DX =    0.0001              !
 ! R5    R(3,5)                  1.185          -DE/DX =    0.0                 !
 ! R6    R(3,7)                  1.1858         -DE/DX =    0.0001              !
 ! A1    A(2,1,3)              115.0159         -DE/DX =    0.0                 !
 ! A2    A(1,2,4)              110.0139         -DE/DX =    0.0                 !
 ! A3    A(1,2,6)              116.3904         -DE/DX =    0.0                 !
 ! A4    A(4,2,6)              133.4774         -DE/DX =    0.0                 !
 ! A5    A(1,3,5)              110.0139         -DE/DX =    0.0                 !
 ! A6    A(1,3,7)              116.3904         -DE/DX =    0.0                 !
 ! A7    A(5,3,7)              133.4774         -DE/DX =    0.0                 !
 ! D1    D(3,1,2,4)           -151.4933         -DE/DX =    0.0                 !
 ! D2    D(3,1,2,6)             31.9242         -DE/DX =    0.0                 !
 ! D3    D(2,1,3,5)           -151.4933         -DE/DX =    0.0                 !
 ! D4    D(2,1,3,7)             31.9242         -DE/DX =    0.0                 !
 ! D5    D(1,2,4,6)           -175.78           -DE/DX =   -0.0001              !
 ! D6    D(1,3,5,7)           -175.78           -DE/DX =   -0.0001              !
 --------------------------------------------------------------------------------
 GradGradGradGradGradGradGradGradGradGradGradGradGradGradGradGradGradGrad


 ----------------------------------------------------------------------

 Electric dipole moment (input orientation):
 (Debye = 10**-18 statcoulomb cm , SI units = C m)
                  (au)            (Debye)         (10**-30 SI)
   Tot        0.604401D-02      0.153623D-01      0.512432D-01
   x          0.000000D+00      0.000000D+00      0.000000D+00
   y          0.000000D+00      0.000000D+00      0.000000D+00
   z          0.604401D-02      0.153623D-01      0.512432D-01

 Dipole polarizability, Alpha (input orientation).
 (esu units = cm**3 , SI units = C**2 m**2 J**-1)
 Alpha(0;0):
               (au)            (10**-24 esu)      (10**-40 SI)
   iso        0.429414D+02      0.636326D+01      0.708008D+01
   aniso      0.289850D+02      0.429514D+01      0.477899D+01
   xx         0.283028D+02      0.419405D+01      0.466651D+01
   yx         0.616933D+01      0.914200D+00      0.101718D+01
   yy         0.592755D+02      0.878373D+01      0.977322D+01
   zx         0.000000D+00      0.000000D+00      0.000000D+00
   zy         0.000000D+00      0.000000D+00      0.000000D+00
   zz         0.412458D+02      0.611200D+01      0.680051D+01

 ----------------------------------------------------------------------

 Dipole orientation:
     8         -0.00000000          0.00000000          1.54896824
     7         -0.00610699          2.40503607          0.01725611
     7          0.00610699         -2.40503607          0.01725611
     8          0.99389260          4.04720343          1.16507918
     8         -0.99389260         -4.04720343          1.16507918
     8         -1.06738534          2.32724857         -1.95482952
     8          1.06738534         -2.32724857         -1.95482952

 Electric dipole moment (dipole orientation):
 (Debye = 10**-18 statcoulomb cm , SI units = C m)
                  (au)            (Debye)         (10**-30 SI)
   Tot        0.604401D-02      0.153623D-01      0.512432D-01
   x          0.000000D+00      0.000000D+00      0.000000D+00
   y          0.000000D+00      0.000000D+00      0.000000D+00
   z          0.604401D-02      0.153623D-01      0.512432D-01

 Dipole polarizability, Alpha (dipole orientation).
 (esu units = cm**3 , SI units = C**2 m**2 J**-1)
 Alpha(0;0):
               (au)            (10**-24 esu)      (10**-40 SI)
   iso        0.429414D+02      0.636326D+01      0.708008D+01
   aniso      0.289850D+02      0.429514D+01      0.477899D+01
   xx         0.283028D+02      0.419405D+01      0.466651D+01
   yx         0.616933D+01      0.914200D+00      0.101718D+01
   yy         0.592755D+02      0.878373D+01      0.977322D+01
   zx         0.000000D+00      0.000000D+00      0.000000D+00
   zy         0.000000D+00      0.000000D+00      0.000000D+00
   zz         0.412458D+02      0.611200D+01      0.680051D+01

 ----------------------------------------------------------------------
 1\1\GINC-GAMBA\Freq\RB3LYP\Gen\N2O5\IRIKURA\16-Jun-2022\0\\#N Geom=All
 Check Guess=TCheck SCRF=Check GenChk RB3LYP/ChkBas Freq\\dinitrogen pe
 ntoxide, B3LYP/pcseg-2\\0,1\O,0.,0.,0.8196786911\N,-0.0032316783,1.272
 6902798,0.0091315392\N,0.0032316783,-1.2726902798,0.0091315392\O,0.525
 9453115,2.1416878238,0.6165333498\O,-0.5259453115,-2.1416878238,0.6165
 333498\O,-0.5648359972,1.2315269082,-1.0344512345\O,0.5648359972,-1.23
 15269082,-1.0344512345\\Version=ES64L-G16RevB.01\State=1-A\HF=-485.537
 911\RMSD=2.207e-09\RMSF=5.538e-05\ZeroPoint=0.0267433\Thermal=0.033123
 2\Dipole=0.,0.,0.006044\DipoleDeriv=-0.1778676,0.0061733,0.,-0.0037535
 ,-1.8748672,0.,0.,0.,-0.3735921,0.8259208,0.3327601,0.6858561,0.356496
 6,2.5964764,0.0190639,0.7469142,-0.6805279,1.5072574,0.8259208,0.33276
 01,-0.6858561,0.3564966,2.5964764,-0.0190639,-0.7469142,0.6805279,1.50
 72574,-0.360636,-0.3522657,-0.2648554,-0.309633,-1.1405098,-0.3115122,
 -0.2645286,-0.1673179,-0.4850095,-0.360636,-0.3522657,0.2648554,-0.309
 633,-1.1405098,0.3115122,0.2645286,0.1673179,-0.4850095,-0.376351,0.01
 64189,-0.4031917,-0.0449869,-0.518533,0.0478116,-0.4276781,0.2528424,-
 0.8354518,-0.376351,0.0164189,0.4031917,-0.0449869,-0.518533,-0.047811
 6,0.4276781,-0.2528424,-0.8354518\Polar=28.3028337,6.1693289,59.275545
 1,0.,0.,41.2458053\Quadrupole=1.8401364,-0.9881041,-0.8520322,-0.92807
 35,0.,0.\PG=C02 [C2(O1),X(N2O4)]\NImag=0\\0.04338662,0.01303180,0.1547
 8722,0.,0.,0.25432224,-0.04872881,0.00668374,-0.00445441,0.45885656,-0
 .00433116,0.02470960,-0.01328129,0.18901152,0.53679135,0.00034315,-0.0
 4673610,-0.11391478,0.35568851,0.23908612,0.80673087,-0.04872881,0.006
 68374,0.00445441,-0.01534240,0.00050039,-0.00792777,0.45885656,-0.0043
 3116,0.02470960,0.01328129,0.00050039,-0.08829873,0.04445040,0.1890115
 2,0.53679135,-0.00034315,0.04673610,-0.11391478,0.00792777,-0.04445040
 ,0.08668335,-0.35568851,-0.23908612,0.80673087,0.01436427,-0.02745798,
 -0.00386613,-0.19509750,-0.16362385,-0.13270755,0.00352096,0.00520957,
 0.00654059,0.18695793,-0.01806932,-0.09113130,-0.02021947,-0.17609489,
 -0.38230893,-0.19683159,-0.00905824,0.02143201,0.03037527,0.22799130,0
 .45943024,0.00178463,0.00629458,0.02553582,-0.12718641,-0.18085466,-0.
 24641775,0.00159112,-0.00076117,-0.00746668,0.18765790,0.23712182,0.28
 050281,0.01436427,-0.02745798,0.00386613,0.00352096,0.00520957,-0.0065
 4059,-0.19509750,-0.16362385,0.13270755,-0.00227998,-0.00254579,0.0006
 3096,0.18695793,-0.01806932,-0.09113130,0.02021948,-0.00905824,0.02143
 201,-0.03037527,-0.17609489,-0.38230893,0.19683159,-0.00254579,-0.0163
 9381,0.00330800,0.22799130,0.45943024,-0.00178463,-0.00629458,0.025535
 82,-0.00159112,0.00076117,-0.00746668,0.12718641,0.18085466,-0.2464177
 5,-0.00063096,-0.00330800,0.00054284,-0.18765790,-0.23712182,0.2805028
 1,0.01267123,0.01425834,-0.01751450,-0.20578448,-0.02053188,-0.2175551
 2,0.00257567,-0.00623459,-0.00869938,-0.00767312,-0.02608428,-0.063262
 03,0.00020744,0.00386122,0.00121618,0.20048455,0.01588458,-0.01097192,
 0.04414997,-0.01437421,-0.12265990,-0.00668207,0.00333168,0.01033460,0
 .00291150,-0.03839153,0.01097363,-0.06503499,-0.00118171,-0.00200184,0
 .00007358,0.03187564,0.12242153,-0.02151795,0.05262744,-0.03878216,-0.
 22446095,-0.02245858,-0.49445538,0.00592339,-0.02119764,-0.03115964,-0
 .05694168,-0.03976031,-0.05737311,0.00005216,0.00737772,0.00467607,0.3
 0137994,0.02399669,0.60131935,0.01267123,0.01425834,0.01751450,0.00257
 567,-0.00623459,0.00869938,-0.20578448,-0.02053188,0.21755512,0.000207
 44,0.00386122,-0.00121618,-0.00767312,-0.02608428,0.06326203,-0.002481
 29,0.00285556,-0.00443491,0.20048455,0.01588458,-0.01097191,-0.0441499
 7,0.00333168,0.01033460,-0.00291150,-0.01437421,-0.12265990,0.00668207
 ,-0.00118171,-0.00200184,-0.00007358,-0.03839153,0.01097363,0.06503499
 ,0.00285556,-0.00809611,-0.00058532,0.03187564,0.12242153,0.02151795,-
 0.05262743,-0.03878217,-0.00592339,0.02119764,-0.03115964,0.22446095,0
 .02245858,-0.49445538,-0.00005216,-0.00737772,0.00467607,0.05694168,0.
 03976031,-0.05737311,0.00443491,0.00058532,0.01577487,-0.30137994,-0.0
 2399669,0.60131935\\0.,0.,0.00002925,0.00007633,0.00000411,-0.00010713
 ,-0.00007633,-0.00000411,-0.00010713,-0.00005470,-0.00001212,-0.000011
 00,0.00005470,0.00001212,-0.00001100,0.00000323,0.00002157,0.00010351,
 -0.00000323,-0.00002157,0.00010351\\\@


 FORGIVE MY NONSENSE AS I ALSO FORGIVE THOSE WHO THINK THEY TALK SENSE

                                                       -- ROBERT FROST
 Job cpu time:       0 days  0 hours 11 minutes 35.9 seconds.
 Elapsed time:       0 days  0 hours  0 minutes 58.1 seconds.
 File lengths (MBytes):  RWF=     30 Int=      0 D2E=      0 Chk=      5 Scr=      1
 Normal termination of Gaussian 16 at Thu Jun 16 21:22:02 2022.
