 Entering Gaussian System, Link 0=g16
 AtFile(1): pcseg2.gbs
            -H     0
            S   4   1.00
                  0.754732D+02           0.427821D-02
                  0.113575D+02           0.328672D-01
                  0.260081D+01           0.159578D+00
                  0.735503D+00           0.500000D+00
            S   1   1.00
                  0.231761D+00           1.0000000
            S   1   1.00
                  0.741675D-01           1.0000000
            P   1   1.00
                  0.160000D+01           1.0000000
            P   1   1.00
                  0.450000D+00           1.0000000
            D   1   1.00
                  0.125000D+01           1.0000000
            ****
            -C     0
            S   7   1.00
                  0.731999D+04           0.695369D-03
                  0.109818D+04           0.537138D-02
                  0.250014D+03           0.274734D-01
                  0.707586D+02           0.105078D+00
                  0.228595D+02           0.291262D+00
                  0.803936D+01           0.500000D+00
                  0.289309D+01           0.362224D+00
            S   2   1.00
                  0.521640D+01          -0.957844D-01
                  0.556124D+00           0.500000D+00
            S   1   1.00
                  0.228813D+00           1.0000000
            S   1   1.00
                  0.936338D-01           1.0000000
            P   4   1.00
                  0.339855D+02           0.818395D-02
                  0.772957D+01           0.586921D-01
                  0.224954D+01           0.222514D+00
                  0.767681D+00           0.500000D+00
            P   1   1.00
                  0.263283D+00           1.0000000
            P   1   1.00
                  0.848744D-01           1.0000000
            D   1   1.00
                  0.140000D+01           1.0000000
            D   1   1.00
                  0.450000D+00           1.0000000
            F   1   1.00
                  0.950000D+00           1.0000000
            ****
            -O     0
            S   7   1.00
                  0.135887D+05           0.665492D-03
                  0.203847D+04           0.514222D-02
                  0.464041D+03           0.263472D-01
                  0.131339D+03           0.101500D+00
                  0.425340D+02           0.285877D+00
                  0.150429D+02           0.500000D+00
                  0.546616D+01           0.368211D+00
            S   2   1.00
                  0.100915D+02          -0.100084D+00
                  0.110429D+01           0.500000D+00
            S   1   1.00
                  0.448082D+00           1.0000000
            S   1   1.00
                  0.175325D+00           1.0000000
            P   4   1.00
                  0.608220D+02           0.908253D-02
                  0.140332D+02           0.645878D-01
                  0.418244D+01           0.241502D+00
                  0.142490D+01           0.500000D+00
            P   1   1.00
                  0.478741D+00           1.0000000
            P   1   1.00
                  0.146257D+00           1.0000000
            D   1   1.00
                  0.220000D+01           1.0000000
            D   1   1.00
                  0.650000D+00           1.0000000
            F   1   1.00
                  0.110000D+01           1.0000000
            ****
            -N     0
            S   7   1.00
                  0.101643D+05           0.682757D-03
                  0.152481D+04           0.527488D-02
                  0.347119D+03           0.270037D-01
                  0.982389D+02           0.103673D+00
                  0.317799D+02           0.289575D+00
                  0.112240D+02           0.500000D+00
                  0.406611D+01           0.364621D+00
            S   2   1.00
                  0.747898D+01          -0.975681D-01
                  0.805040D+00           0.500000D+00
            S   1   1.00
                  0.324626D+00           1.0000000
            S   1   1.00
                  0.128132D+00           1.0000000
            P   4   1.00
                  0.482704D+02           0.829547D-02
                  0.110815D+02           0.596223D-01
                  0.326643D+01           0.227889D+00
                  0.111680D+01           0.500000D+00
            P   1   1.00
                  0.382049D+00           1.0000000
            P   1   1.00
                  0.121222D+00           1.0000000
            D   1   1.00
                  0.180000D+01           1.0000000
            D   1   1.00
                  0.550000D+00           1.0000000
            F   1   1.00
                  0.102000D+01           1.0000000
            ****
            -F     0
            S   7   1.00
                  0.174507D+05           0.655972D-03
                  0.261768D+04           0.506944D-02
                  0.595857D+03           0.259899D-01
                  0.168651D+03           0.100353D+00
                  0.546654D+02           0.284095D+00
                  0.193717D+02           0.500000D+00
                  0.706202D+01           0.370721D+00
            S   2   1.00
                  0.131197D+02          -0.101997D+00
                  0.145046D+01           0.500000D+00
            S   1   1.00
                  0.588255D+00           1.0000000
            S   1   1.00
                  0.227960D+00           1.0000000
            P   4   1.00
                  0.779407D+02           0.931135D-02
                  0.180425D+02           0.663964D-01
                  0.542342D+01           0.246386D+00
                  0.184876D+01           0.500000D+00
            P   1   1.00
                  0.617455D+00           1.0000000
            P   1   1.00
                  0.185496D+00           1.0000000
            D   1   1.00
                  0.280000D+01           1.0000000
            D   1   1.00
                  0.800000D+00           1.0000000
            F   1   1.00
                  0.120000D+01           1.0000000
            ****
            -Cl     0
            S   8   1.00
                  0.154272D+06           0.222473D-03
                  0.231232D+05           0.172590D-02
                  0.526257D+04           0.899286D-02
                  0.148995D+04           0.367724D-01
                  0.485417D+03           0.121446D+00
                  0.174634D+03           0.304148D+00
                  0.672393D+02           0.500000D+00
                  0.265780D+02           0.360252D+00
            S   3   1.00
                  0.131826D+03          -0.531330D-01
                  0.400703D+02          -0.233346D+00
                  0.789448D+01           0.500000D+00
            S   2   1.00
                  0.427711D+01           0.500000D+00
                  0.196233D+01           0.370517D+00
            S   1   1.00
                  0.520793D+00           1.0000000
            S   1   1.00
                  0.181633D+00           1.0000000
            P   7   1.00
                  0.124440D+04           0.988206D-03
                  0.295109D+03           0.829674D-02
                  0.947224D+02           0.430906D-01
                  0.352588D+02           0.148443D+00
                  0.144211D+02           0.344744D+00
                  0.610371D+01           0.500000D+00
                  0.258886D+01           0.348278D+00
            P   2   1.00
                  0.109447D+02          -0.196768D-01
                  0.104413D+01           0.500000D+00
            P   1   1.00
                  0.376184D+00           1.0000000
            P   1   1.00
                  0.120613D+00           1.0000000
            D   1   1.00
                  0.231000D+01           1.0000000
            D   1   1.00
                  0.520000D+00           1.0000000
            F   1   1.00
                  0.720000D+00           1.0000000
            ****
            -S     0
            S   8   1.00
                  0.134700D+06           0.226231D-03
                  0.201904D+05           0.175488D-02
                  0.459528D+04           0.914190D-02
                  0.130109D+04           0.373551D-01
                  0.423902D+03           0.123121D+00
                  0.152485D+03           0.306801D+00
                  0.586925D+02           0.500000D+00
                  0.231461D+02           0.354358D+00
            S   3   1.00
                  0.116327D+03          -0.491772D-01
                  0.352841D+02          -0.215962D+00
                  0.677831D+01           0.500000D+00
            S   2   1.00
                  0.360404D+01           0.500000D+00
                  0.164871D+01           0.366278D+00
            S   1   1.00
                  0.421821D+00           1.0000000
            S   1   1.00
                  0.147554D+00           1.0000000
            P   7   1.00
                  0.104863D+04           0.105273D-02
                  0.248717D+03           0.879338D-02
                  0.797887D+02           0.453358D-01
                  0.296023D+02           0.154476D+00
                  0.120627D+02           0.352366D+00
                  0.507628D+01           0.500000D+00
                  0.213375D+01           0.346429D+00
            P   2   1.00
                  0.928958D+01          -0.185932D-01
                  0.837819D+00           0.500000D+00
            P   1   1.00
                  0.301495D+00           1.0000000
            P   1   1.00
                  0.974740D-01           1.0000000
            D   1   1.00
                  0.210000D+01           1.0000000
            D   1   1.00
                  0.480000D+00           1.0000000
            F   1   1.00
                  0.660000D+00           1.0000000
            ****
            -Br     0
            S    10   1.00
                  0.233625D+07           0.532336D-04
                  0.349961D+06           0.413715D-03
                  0.796444D+05           0.217123D-02
                  0.225555D+05           0.910109D-02
                  0.735546D+04           0.323789D-01
                  0.265352D+04           0.988755D-01
                  0.103517D+04           0.248138D+00
                  0.422205D+03           0.474328D+00
                  0.180035D+03           0.500000D+00
                  0.793308D+02           0.187769D+00
            S    4   1.00
                  0.620834D+03          -0.226511D-01
                  0.190829D+03          -0.109497D+00
                  0.312505D+02           0.500000D+00
                  0.135270D+02           0.492812D+00
            S    2   1.00
                  0.216097D+02          -0.165418D+00
                  0.372566D+01           0.500000D+00
            S    1   1.00
                  0.169770D+01           1.0000000
            S    1   1.00
                  0.489332D+00           1.0000000
            S    1   1.00
                  0.175712D+00           1.0000000
            P    8   1.00
                  0.960829D+04           0.478974D-03
                  0.227618D+04           0.417853D-02
                  0.736723D+03           0.229315D-01
                  0.281579D+03           0.892653D-01
                  0.118395D+03           0.255288D+00
                  0.527481D+02           0.479074D+00
                  0.245098D+02           0.500000D+00
                  0.112009D+02           0.200944D+00
            P    4   1.00
                  0.587849D+02          -0.189674D-01
                  0.918962D+01           0.264104D+00
                  0.413895D+01           0.500000D+00
                  0.184225D+01           0.319316D+00
            P    1   1.00
                  0.713862D+00           1.0000000
            P    1   1.00
                  0.274232D+00           1.0000000
            P    1   1.00
                  0.944411D-01           1.0000000
            D    7   1.00
                  0.398470D+03           0.204066D-02
                  0.118967D+03           0.175171D-01
                  0.450197D+02           0.829708D-01
                  0.190320D+02           0.236284D+00
                  0.855686D+01           0.428468D+00
                  0.382950D+01           0.500000D+00
                  0.166291D+01           0.349360D+00
            D    1   1.00
                  0.672953D+00           1.0000000
            D    1   1.00
                  0.252000D+00           1.0000000
            F    1   1.00
                  0.530000D+00           1.0000000
            ****
            -Si     0
            S    8   1.00
                  0.996133D+05           0.235546D-03
                  0.149311D+05           0.182707D-02
                  0.339820D+04           0.951425D-02
                  0.962140D+03           0.388172D-01
                  0.313430D+03           0.127328D+00
                  0.112683D+03           0.313522D+00
                  0.433372D+02           0.500000D+00
                  0.170029D+02           0.340347D+00
            S    3   1.00
                  0.884208D+02          -0.404451D-01
                  0.266756D+02          -0.178059D+00
                  0.479640D+01           0.500000D+00
            S    2   1.00
                  0.239385D+01           0.500000D+00
                  0.108333D+01           0.338016D+00
            S    1   1.00
                  0.252420D+00           1.0000000
            S    1   1.00
                  0.891210D-01           1.0000000
            P    7   1.00
                  0.709901D+03           0.123028D-02
                  0.168426D+03           0.101366D-01
                  0.539946D+02           0.511840D-01
                  0.198646D+02           0.169967D+00
                  0.801369D+01           0.370717D+00
                  0.331870D+01           0.500000D+00
                  0.136112D+01           0.344128D+00
            P    2   1.00
                  0.622158D+01          -0.166609D-01
                  0.503049D+00           0.500000D+00
            P    1   1.00
                  0.179848D+00           1.0000000
            P    1   1.00
                  0.591912D-01           1.0000000
            D    1   1.00
                  0.168000D+01           1.0000000
            D    1   1.00
                  0.380000D+00           1.0000000
            F    1   1.00
                  0.540000D+00           1.0000000
            ****
            -P     0
            S    8   1.00
                  0.116416D+06           0.230715D-03
                  0.174500D+05           0.178960D-02
                  0.397149D+04           0.932116D-02
                  0.112447D+04           0.380591D-01
                  0.366347D+03           0.125148D+00
                  0.131757D+03           0.310022D+00
                  0.506988D+02           0.500000D+00
                  0.199436D+02           0.347528D+00
            S    3   1.00
                  0.101878D+03          -0.446755D-01
                  0.308249D+02          -0.196376D+00
                  0.573688D+01           0.500000D+00
            S    2   1.00
                  0.296868D+01           0.500000D+00
                  0.135315D+01           0.355098D+00
            S    1   1.00
                  0.332196D+00           1.0000000
            S    1   1.00
                  0.116229D+00           1.0000000
            P    7   1.00
                  0.873928D+03           0.112375D-02
                  0.207298D+03           0.933330D-02
                  0.664628D+02           0.477213D-01
                  0.245665D+02           0.160733D+00
                  0.996820D+01           0.359760D+00
                  0.416536D+01           0.500000D+00
                  0.173022D+01           0.346593D+00
            P    2   1.00
                  0.772530D+01          -0.175718D-01
                  0.657252D+00           0.500000D+00
            P    1   1.00
                  0.239903D+00           1.0000000
            P    1   1.00
                  0.800988D-01           1.0000000
            D    1   1.00
                  0.189000D+01           1.0000000
            D    1   1.00
                  0.430000D+00           1.0000000
            F    1   1.00
                  0.600000D+00           1.0000000
            ****
            
 Initial command:
 /usr/local/apps/g16_b01_avx/g16/l1.exe "/wrk/irikura/Gau-20265.inp" -scrdir="/wrk/irikura/"
 Entering Link 1 = /usr/local/apps/g16_b01_avx/g16/l1.exe PID=     20267.
  
 Copyright (c) 1988-2017, Gaussian, Inc.  All Rights Reserved.
  
 This is part of the Gaussian(R) 16 program.  It is based on
 the Gaussian(R) 09 system (copyright 2009, Gaussian, Inc.),
 the Gaussian(R) 03 system (copyright 2003, Gaussian, Inc.),
 the Gaussian(R) 98 system (copyright 1998, Gaussian, Inc.),
 the Gaussian(R) 94 system (copyright 1995, Gaussian, Inc.),
 the Gaussian 92(TM) system (copyright 1992, Gaussian, Inc.),
 the Gaussian 90(TM) system (copyright 1990, Gaussian, Inc.),
 the Gaussian 88(TM) system (copyright 1988, Gaussian, Inc.),
 the Gaussian 86(TM) system (copyright 1986, Carnegie Mellon
 University), and the Gaussian 82(TM) system (copyright 1983,
 Carnegie Mellon University). Gaussian is a federally registered
 trademark of Gaussian, Inc.
  
 This software contains proprietary and confidential information,
 including trade secrets, belonging to Gaussian, Inc.
  
 This software is provided under written license and may be
 used, copied, transmitted, or stored only in accord with that
 written license.
  
 The following legend is applicable only to US Government
 contracts under FAR:
  
                    RESTRICTED RIGHTS LEGEND
  
 Use, reproduction and disclosure by the US Government is
 subject to restrictions as set forth in subparagraphs (a)
 and (c) of the Commercial Computer Software - Restricted
 Rights clause in FAR 52.227-19.
  
 Gaussian, Inc.
 340 Quinnipiac St., Bldg. 40, Wallingford CT 06492
  
  
 ---------------------------------------------------------------
 Warning -- This program may not be used in any manner that
 competes with the business of Gaussian, Inc. or will provide
 assistance to any competitor of Gaussian, Inc.  The licensee
 of this program is prohibited from giving any competitor of
 Gaussian, Inc. access to this program.  By using this program,
 the user acknowledges that Gaussian, Inc. is engaged in the
 business of creating and licensing software in the field of
 computational chemistry and represents and warrants to the
 licensee that it is not a competitor of Gaussian, Inc. and that
 it will not use this program in any manner prohibited above.
 ---------------------------------------------------------------
  

 Cite this work as:
 Gaussian 16, Revision B.01,
 M. J. Frisch, G. W. Trucks, H. B. Schlegel, G. E. Scuseria, 
 M. A. Robb, J. R. Cheeseman, G. Scalmani, V. Barone, 
 G. A. Petersson, H. Nakatsuji, X. Li, M. Caricato, A. V. Marenich, 
 J. Bloino, B. G. Janesko, R. Gomperts, B. Mennucci, H. P. Hratchian, 
 J. V. Ortiz, A. F. Izmaylov, J. L. Sonnenberg, D. Williams-Young, 
 F. Ding, F. Lipparini, F. Egidi, J. Goings, B. Peng, A. Petrone, 
 T. Henderson, D. Ranasinghe, V. G. Zakrzewski, J. Gao, N. Rega, 
 G. Zheng, W. Liang, M. Hada, M. Ehara, K. Toyota, R. Fukuda, 
 J. Hasegawa, M. Ishida, T. Nakajima, Y. Honda, O. Kitao, H. Nakai, 
 T. Vreven, K. Throssell, J. A. Montgomery, Jr., J. E. Peralta, 
 F. Ogliaro, M. J. Bearpark, J. J. Heyd, E. N. Brothers, K. N. Kudin, 
 V. N. Staroverov, T. A. Keith, R. Kobayashi, J. Normand, 
 K. Raghavachari, A. P. Rendell, J. C. Burant, S. S. Iyengar, 
 J. Tomasi, M. Cossi, J. M. Millam, M. Klene, C. Adamo, R. Cammi, 
 J. W. Ochterski, R. L. Martin, K. Morokuma, O. Farkas, 
 J. B. Foresman, and D. J. Fox, Gaussian, Inc., Wallingford CT, 2016.
 
 ******************************************
 Gaussian 16:  ES64L-G16RevB.01 20-Dec-2017
                16-Jun-2022 
 ******************************************
 %mem=1000mw
 %nprocs=12
 Will use up to   12 processors via shared memory.
 --------------------
 # b3lyp/gen opt freq
 --------------------
 1/18=20,19=15,26=3,38=1/1,3;
 2/9=110,12=2,17=6,18=5,40=1/2;
 3/5=7,11=2,25=1,30=1,71=1,74=-5/1,2,3;
 4//1;
 5/5=2,38=5/2;
 6/7=2,8=2,9=2,10=2,28=1/1;
 7//1,2,3,16;
 1/18=20,19=15,26=3/3(2);
 2/9=110/2;
 99//99;
 2/9=110/2;
 3/5=7,6=1,11=2,25=1,30=1,71=1,74=-5,82=7/1,2,3;
 4/5=5,16=3,69=1/1;
 5/5=2,38=5/2;
 7//1,2,3,16;
 1/18=20,19=15,26=3/3(-5);
 2/9=110/2;
 6/7=2,8=2,9=2,10=2,19=2,28=1/1;
 99/9=1/99;
 --------------------------
 naphthalene, B3LYP/pcseg-2
 --------------------------
 Symbolic Z-matrix:
 Charge =  0 Multiplicity = 1
 C                     0.        1.24363   1.40023 
 C                     0.        2.42964   0.70743 
 C                     0.        2.42964  -0.70743 
 C                     0.        1.24363  -1.40023 
 C                     0.       -1.24363  -1.40023 
 C                     0.       -2.42964  -0.70743 
 C                     0.       -2.42964   0.70743 
 C                     0.       -1.24363   1.40023 
 C                     0.        0.        0.71572 
 C                     0.        0.       -0.71572 
 H                     0.        1.24315   2.48653 
 H                     0.        3.37351   1.24331 
 H                     0.        3.37351  -1.24331 
 H                     0.        1.24315  -2.48653 
 H                     0.       -1.24315  -2.48653 
 H                     0.       -3.37351  -1.24331 
 H                     0.       -3.37351   1.24331 
 H                     0.       -1.24315   2.48653 
 

 GradGradGradGradGradGradGradGradGradGradGradGradGradGradGradGradGradGrad
 Berny optimization.
 Initialization pass.
                           ----------------------------
                           !    Initial Parameters    !
                           ! (Angstroms and Degrees)  !
 --------------------------                            --------------------------
 ! Name  Definition              Value          Derivative Info.                !
 --------------------------------------------------------------------------------
 ! R1    R(1,2)                  1.3735         estimate D2E/DX2                !
 ! R2    R(1,9)                  1.4196         estimate D2E/DX2                !
 ! R3    R(1,11)                 1.0863         estimate D2E/DX2                !
 ! R4    R(2,3)                  1.4149         estimate D2E/DX2                !
 ! R5    R(2,12)                 1.0854         estimate D2E/DX2                !
 ! R6    R(3,4)                  1.3735         estimate D2E/DX2                !
 ! R7    R(3,13)                 1.0854         estimate D2E/DX2                !
 ! R8    R(4,10)                 1.4196         estimate D2E/DX2                !
 ! R9    R(4,14)                 1.0863         estimate D2E/DX2                !
 ! R10   R(5,6)                  1.3735         estimate D2E/DX2                !
 ! R11   R(5,10)                 1.4196         estimate D2E/DX2                !
 ! R12   R(5,15)                 1.0863         estimate D2E/DX2                !
 ! R13   R(6,7)                  1.4149         estimate D2E/DX2                !
 ! R14   R(6,16)                 1.0854         estimate D2E/DX2                !
 ! R15   R(7,8)                  1.3735         estimate D2E/DX2                !
 ! R16   R(7,17)                 1.0854         estimate D2E/DX2                !
 ! R17   R(8,9)                  1.4196         estimate D2E/DX2                !
 ! R18   R(8,18)                 1.0863         estimate D2E/DX2                !
 ! R19   R(9,10)                 1.4314         estimate D2E/DX2                !
 ! A1    A(2,1,9)              120.8799         estimate D2E/DX2                !
 ! A2    A(2,1,11)             120.3162         estimate D2E/DX2                !
 ! A3    A(9,1,11)             118.8039         estimate D2E/DX2                !
 ! A4    A(1,2,3)              120.291          estimate D2E/DX2                !
 ! A5    A(1,2,12)             120.1232         estimate D2E/DX2                !
 ! A6    A(3,2,12)             119.5858         estimate D2E/DX2                !
 ! A7    A(2,3,4)              120.291          estimate D2E/DX2                !
 ! A8    A(2,3,13)             119.5858         estimate D2E/DX2                !
 ! A9    A(4,3,13)             120.1232         estimate D2E/DX2                !
 ! A10   A(3,4,10)             120.8799         estimate D2E/DX2                !
 ! A11   A(3,4,14)             120.3162         estimate D2E/DX2                !
 ! A12   A(10,4,14)            118.8039         estimate D2E/DX2                !
 ! A13   A(6,5,10)             120.8799         estimate D2E/DX2                !
 ! A14   A(6,5,15)             120.3162         estimate D2E/DX2                !
 ! A15   A(10,5,15)            118.8039         estimate D2E/DX2                !
 ! A16   A(5,6,7)              120.291          estimate D2E/DX2                !
 ! A17   A(5,6,16)             120.1232         estimate D2E/DX2                !
 ! A18   A(7,6,16)             119.5858         estimate D2E/DX2                !
 ! A19   A(6,7,8)              120.291          estimate D2E/DX2                !
 ! A20   A(6,7,17)             119.5858         estimate D2E/DX2                !
 ! A21   A(8,7,17)             120.1232         estimate D2E/DX2                !
 ! A22   A(7,8,9)              120.8799         estimate D2E/DX2                !
 ! A23   A(7,8,18)             120.3162         estimate D2E/DX2                !
 ! A24   A(9,8,18)             118.8039         estimate D2E/DX2                !
 ! A25   A(1,9,8)              122.3417         estimate D2E/DX2                !
 ! A26   A(1,9,10)             118.8291         estimate D2E/DX2                !
 ! A27   A(8,9,10)             118.8291         estimate D2E/DX2                !
 ! A28   A(4,10,5)             122.3417         estimate D2E/DX2                !
 ! A29   A(4,10,9)             118.8291         estimate D2E/DX2                !
 ! A30   A(5,10,9)             118.8291         estimate D2E/DX2                !
 ! D1    D(9,1,2,3)              0.0            estimate D2E/DX2                !
 ! D2    D(9,1,2,12)           180.0            estimate D2E/DX2                !
 ! D3    D(11,1,2,3)           180.0            estimate D2E/DX2                !
 ! D4    D(11,1,2,12)            0.0            estimate D2E/DX2                !
 ! D5    D(2,1,9,8)            180.0            estimate D2E/DX2                !
 ! D6    D(2,1,9,10)             0.0            estimate D2E/DX2                !
 ! D7    D(11,1,9,8)             0.0            estimate D2E/DX2                !
 ! D8    D(11,1,9,10)          180.0            estimate D2E/DX2                !
 ! D9    D(1,2,3,4)              0.0            estimate D2E/DX2                !
 ! D10   D(1,2,3,13)           180.0            estimate D2E/DX2                !
 ! D11   D(12,2,3,4)           180.0            estimate D2E/DX2                !
 ! D12   D(12,2,3,13)            0.0            estimate D2E/DX2                !
 ! D13   D(2,3,4,10)             0.0            estimate D2E/DX2                !
 ! D14   D(2,3,4,14)           180.0            estimate D2E/DX2                !
 ! D15   D(13,3,4,10)          180.0            estimate D2E/DX2                !
 ! D16   D(13,3,4,14)            0.0            estimate D2E/DX2                !
 ! D17   D(3,4,10,5)           180.0            estimate D2E/DX2                !
 ! D18   D(3,4,10,9)             0.0            estimate D2E/DX2                !
 ! D19   D(14,4,10,5)            0.0            estimate D2E/DX2                !
 ! D20   D(14,4,10,9)          180.0            estimate D2E/DX2                !
 ! D21   D(10,5,6,7)             0.0            estimate D2E/DX2                !
 ! D22   D(10,5,6,16)          180.0            estimate D2E/DX2                !
 ! D23   D(15,5,6,7)           180.0            estimate D2E/DX2                !
 ! D24   D(15,5,6,16)            0.0            estimate D2E/DX2                !
 ! D25   D(6,5,10,4)           180.0            estimate D2E/DX2                !
 ! D26   D(6,5,10,9)             0.0            estimate D2E/DX2                !
 ! D27   D(15,5,10,4)            0.0            estimate D2E/DX2                !
 ! D28   D(15,5,10,9)          180.0            estimate D2E/DX2                !
 ! D29   D(5,6,7,8)              0.0            estimate D2E/DX2                !
 ! D30   D(5,6,7,17)           180.0            estimate D2E/DX2                !
 ! D31   D(16,6,7,8)           180.0            estimate D2E/DX2                !
 ! D32   D(16,6,7,17)            0.0            estimate D2E/DX2                !
 ! D33   D(6,7,8,9)              0.0            estimate D2E/DX2                !
 ! D34   D(6,7,8,18)           180.0            estimate D2E/DX2                !
 ! D35   D(17,7,8,9)           180.0            estimate D2E/DX2                !
 ! D36   D(17,7,8,18)            0.0            estimate D2E/DX2                !
 ! D37   D(7,8,9,1)            180.0            estimate D2E/DX2                !
 ! D38   D(7,8,9,10)             0.0            estimate D2E/DX2                !
 ! D39   D(18,8,9,1)             0.0            estimate D2E/DX2                !
 ! D40   D(18,8,9,10)          180.0            estimate D2E/DX2                !
 ! D41   D(1,9,10,4)             0.0            estimate D2E/DX2                !
 ! D42   D(1,9,10,5)           180.0            estimate D2E/DX2                !
 ! D43   D(8,9,10,4)           180.0            estimate D2E/DX2                !
 ! D44   D(8,9,10,5)             0.0            estimate D2E/DX2                !
 --------------------------------------------------------------------------------
 Trust Radius=3.00D-01 FncErr=1.00D-07 GrdErr=1.00D-06 EigMax=2.50D+02 EigMin=1.00D-04
 Number of steps in this run=    103 maximum allowed number of steps=    108.
 GradGradGradGradGradGradGradGradGradGradGradGradGradGradGradGradGradGrad

                          Input orientation:                          
 ---------------------------------------------------------------------
 Center     Atomic      Atomic             Coordinates (Angstroms)
 Number     Number       Type             X           Y           Z
 ---------------------------------------------------------------------
      1          6           0        0.000000    1.243626    1.400231
      2          6           0        0.000000    2.429642    0.707430
      3          6           0        0.000000    2.429642   -0.707430
      4          6           0        0.000000    1.243626   -1.400231
      5          6           0        0.000000   -1.243626   -1.400231
      6          6           0        0.000000   -2.429642   -0.707430
      7          6           0        0.000000   -2.429642    0.707430
      8          6           0        0.000000   -1.243626    1.400231
      9          6           0        0.000000    0.000000    0.715718
     10          6           0        0.000000    0.000000   -0.715718
     11          1           0        0.000000    1.243147    2.486530
     12          1           0        0.000000    3.373505    1.243310
     13          1           0        0.000000    3.373505   -1.243310
     14          1           0        0.000000    1.243147   -2.486530
     15          1           0        0.000000   -1.243147   -2.486530
     16          1           0        0.000000   -3.373505   -1.243310
     17          1           0        0.000000   -3.373505    1.243310
     18          1           0        0.000000   -1.243147    2.486530
 ---------------------------------------------------------------------
                    Distance matrix (angstroms):
                    1          2          3          4          5
     1  C    0.000000
     2  C    1.373538   0.000000
     3  C    2.418443   1.414860   0.000000
     4  C    2.800462   2.418443   1.373538   0.000000
     5  C    3.745532   4.234989   3.738030   2.487252   0.000000
     6  C    4.234989   5.061074   4.859284   3.738030   1.373538
     7  C    3.738030   4.859284   5.061074   4.234989   2.418443
     8  C    2.487252   3.738030   4.234989   3.745532   2.800462
     9  C    1.419565   2.429656   2.815761   2.454352   2.454352
    10  C    2.454352   2.815761   2.429656   1.419565   1.419565
    11  H    1.086299   2.138450   3.407220   3.886761   4.614212
    12  H    2.135652   1.085378   2.167087   3.394804   5.320358
    13  H    3.394804   2.167087   1.085378   2.135652   4.619797
    14  H    3.886761   3.407220   2.138450   1.086299   2.713685
    15  H    4.614212   4.867315   4.081002   2.713685   1.086299
    16  H    5.320358   6.122246   5.827837   4.619797   2.135652
    17  H    4.619797   5.827837   6.122246   5.320358   3.394804
    18  H    2.713685   4.081002   4.867315   4.614212   3.886761
                    6          7          8          9         10
     6  C    0.000000
     7  C    1.414860   0.000000
     8  C    2.418443   1.373538   0.000000
     9  C    2.815761   2.429656   1.419565   0.000000
    10  C    2.429656   2.815761   2.454352   1.431436   0.000000
    11  H    4.867315   4.081002   2.713685   2.163606   3.435085
    12  H    6.122246   5.827837   4.619797   3.414512   3.901067
    13  H    5.827837   6.122246   5.320358   3.901067   3.414512
    14  H    4.081002   4.867315   4.614212   3.435085   2.163606
    15  H    2.138450   3.407220   3.886761   3.435085   2.163606
    16  H    1.085378   2.167087   3.394804   3.901067   3.414512
    17  H    2.167087   1.085378   2.135652   3.414512   3.901067
    18  H    3.407220   2.138450   1.086299   2.163606   3.435085
                   11         12         13         14         15
    11  H    0.000000
    12  H    2.466581   0.000000
    13  H    4.295362   2.486620   0.000000
    14  H    4.973060   4.295362   2.466581   0.000000
    15  H    5.559945   5.935081   4.781116   2.486294   0.000000
    16  H    5.935081   7.190648   6.747010   4.781116   2.466581
    17  H    4.781116   6.747010   7.190648   5.935081   4.295362
    18  H    2.486294   4.781116   5.935081   5.559945   4.973060
                   16         17         18
    16  H    0.000000
    17  H    2.486620   0.000000
    18  H    4.295362   2.466581   0.000000
 Stoichiometry    C10H8
 Framework group  D2H[C2"(C.C),SG(C8H8)]
 Deg. of freedom     9
 Full point group                 D2H     NOp   8
 Largest Abelian subgroup         D2H     NOp   8
 Largest concise Abelian subgroup D2      NOp   4
                         Standard orientation:                         
 ---------------------------------------------------------------------
 Center     Atomic      Atomic             Coordinates (Angstroms)
 Number     Number       Type             X           Y           Z
 ---------------------------------------------------------------------
      1          6           0        0.000000    1.243626    1.400231
      2          6           0        0.000000    2.429642    0.707430
      3          6           0        0.000000    2.429642   -0.707430
      4          6           0        0.000000    1.243626   -1.400231
      5          6           0       -0.000000   -1.243626   -1.400231
      6          6           0       -0.000000   -2.429642   -0.707430
      7          6           0       -0.000000   -2.429642    0.707430
      8          6           0       -0.000000   -1.243626    1.400231
      9          6           0        0.000000    0.000000    0.715718
     10          6           0        0.000000    0.000000   -0.715718
     11          1           0        0.000000    1.243147    2.486530
     12          1           0        0.000000    3.373505    1.243310
     13          1           0        0.000000    3.373505   -1.243310
     14          1           0        0.000000    1.243147   -2.486530
     15          1           0       -0.000000   -1.243147   -2.486530
     16          1           0       -0.000000   -3.373505   -1.243310
     17          1           0       -0.000000   -3.373505    1.243310
     18          1           0       -0.000000   -1.243147    2.486530
 ---------------------------------------------------------------------
 Rotational constants (GHZ):           3.1276635           1.2335429           0.8846422
 General basis read from cards:  (5D, 7F)
 There are    86 symmetry adapted cartesian basis functions of AG  symmetry.
 There are    33 symmetry adapted cartesian basis functions of B1G symmetry.
 There are    38 symmetry adapted cartesian basis functions of B2G symmetry.
 There are    78 symmetry adapted cartesian basis functions of B3G symmetry.
 There are    33 symmetry adapted cartesian basis functions of AU  symmetry.
 There are    86 symmetry adapted cartesian basis functions of B1U symmetry.
 There are    78 symmetry adapted cartesian basis functions of B2U symmetry.
 There are    38 symmetry adapted cartesian basis functions of B3U symmetry.
 There are    73 symmetry adapted basis functions of AG  symmetry.
 There are    31 symmetry adapted basis functions of B1G symmetry.
 There are    35 symmetry adapted basis functions of B2G symmetry.
 There are    67 symmetry adapted basis functions of B3G symmetry.
 There are    31 symmetry adapted basis functions of AU  symmetry.
 There are    73 symmetry adapted basis functions of B1U symmetry.
 There are    67 symmetry adapted basis functions of B2U symmetry.
 There are    35 symmetry adapted basis functions of B3U symmetry.
   412 basis functions,   654 primitive gaussians,   470 cartesian basis functions
    34 alpha electrons       34 beta electrons
       nuclear repulsion energy       457.8903622507 Hartrees.
 NAtoms=   18 NActive=   18 NUniq=    5 SFac= 4.00D+00 NAtFMM=   60 NAOKFM=F Big=F
 Integral buffers will be    131072 words long.
 Raffenetti 2 integral format.
 Two-electron integral symmetry is turned on.
 One-electron integrals computed using PRISM.
 NBasis=   412 RedAO= T EigKep=  1.35D-05  NBF=    73    31    35    67    31    73    67    35
 NBsUse=   412 1.00D-06 EigRej= -1.00D+00 NBFU=    73    31    35    67    31    73    67    35
 ExpMin= 7.42D-02 ExpMax= 7.32D+03 ExpMxC= 2.50D+02 IAcc=3 IRadAn=         5 AccDes= 0.00D+00
 Harris functional with IExCor=  402 and IRadAn=       5 diagonalized for initial guess.
 HarFok:  IExCor=  402 AccDes= 0.00D+00 IRadAn=         5 IDoV= 1 UseB2=F ITyADJ=14
 ICtDFT=  3500011 ScaDFX=  1.000000  1.000000  1.000000  1.000000
 FoFCou: FMM=F IPFlag=           0 FMFlag=      100000 FMFlg1=           0
         NFxFlg=           0 DoJE=T BraDBF=F KetDBF=T FulRan=T
         wScrn=  0.000000 ICntrl=       500 IOpCl=  0 I1Cent=   200000004 NGrid=           0
         NMat0=    1 NMatS0=      1 NMatT0=    0 NMatD0=    1 NMtDS0=    0 NMtDT0=    0
 Petite list used in FoFCou.
 Initial guess orbital symmetries:
       Occupied  (AG) (B2U) (B1U) (B3G) (AG) (B2U) (B1U) (B3G)
                 (AG) (B1U) (AG) (B2U) (B1U) (AG) (B3G) (B2U) (B1U)
                 (AG) (B2U) (AG) (B3G) (AG) (B2U) (B1U) (B3G) (B1U)
                 (B2U) (B3U) (B3G) (AG) (B1G) (B2G) (B3U) (AU)
       Virtual   (B1G) (B2G) (B3U) (AU) (AG) (B2U) (B1U) (AG) (B3G)
                 (B2G) (B1U) (B2U) (AG) (B3G) (B1U) (AG) (B3U)
                 (B1U) (B2U) (B2U) (AG) (B1G) (B2G) (B3G) (B1U)
                 (AG) (B2U) (B3U) (AU) (B2U) (B3G) (AG) (B1U) (B3U)
                 (B1U) (B2G) (B3G) (B2U) (AG) (B1G) (B1U) (AG)
                 (B3G) (B2U) (AG) (AU) (B1U) (B2U) (B3G) (B2G)
                 (B1U) (B3G) (B3G) (B2U) (AG) (B1U) (B1U) (B2U)
                 (AG) (B3G) (B1G) (B1U) (AG) (B1U) (B3G) (B1U)
                 (B2U) (AG) (B3U) (B3G) (B3G) (B2U) (B3U) (B3G)
                 (AU) (B1U) (B2G) (B1G) (B1G) (B2U) (AG) (B3U)
                 (AU) (AG) (B2U) (AG) (B1U) (B2U) (B2G) (AG) (B3U)
                 (B1U) (AU) (B3G) (B1G) (AG) (B3G) (B2U) (B2G)
                 (B3U) (B3G) (B1U) (B2U) (AG) (B3G) (B1G) (B3U)
                 (B1U) (B2U) (B1G) (B2G) (AU) (AG) (B1U) (B3U)
                 (B2G) (B3G) (AU) (B2U) (B1U) (AG) (B1G) (AG) (B1U)
                 (B3U) (B2U) (B2G) (AU) (B1G) (B3G) (B2U) (B3U)
                 (B3G) (AU) (B2G) (B1U) (AG) (B2G) (B2U) (AG) (B3U)
                 (B1U) (B3G) (B1G) (AG) (B1U) (B2U) (AG) (B3G)
                 (AU) (B2U) (B1U) (B3G) (AG) (B2G) (B1U) (B2U)
                 (AG) (B2U) (AG) (B3G) (B3G) (B1U) (B2U) (B2G)
                 (AU) (AG) (B3G) (AG) (B1U) (B2U) (B3G) (B1U) (B2U)
                 (B1U) (AG) (B3G) (B3G) (B2U) (B1U) (B1U) (B3G)
                 (B2U) (AG) (B1U) (B3U) (B1G) (AG) (B1G) (B3U)
                 (B3G) (B2G) (AU) (B2U) (B1U) (B1G) (B3U) (AG)
                 (B3G) (AU) (B3U) (B2U) (B2G) (B1G) (B2U) (B3U)
                 (AG) (B2G) (B1U) (AG) (B2U) (B3G) (B1G) (AG) (AU)
                 (AG) (B1U) (B2U) (B3G) (B1U) (AG) (B3U) (B2U)
                 (AG) (B3G) (AU) (B3G) (B1U) (B2G) (B3G) (B2U)
                 (B1U) (B3U) (B1G) (B2G) (AU) (B1G) (B2U) (AG)
                 (B1U) (AG) (B2G) (B1G) (B3U) (B2U) (B1U) (B3U)
                 (AG) (AU) (B3G) (AU) (B3U) (AG) (B2U) (B2G) (B1U)
                 (B1G) (B2U) (B3G) (B3U) (B3G) (B1U) (B3G) (B1U)
                 (B2U) (B2G) (B3G) (AG) (AU) (B1G) (B1G) (B2G)
                 (AG) (B1G) (B3U) (B1G) (AU) (B3U) (B2U) (B1U)
                 (B2G) (AU) (B1U) (B2G) (AU) (B3U) (B1G) (AG) (B2U)
                 (B3G) (B3U) (AU) (B1U) (B3G) (B2G) (B2G) (AG)
                 (B1U) (B3G) (AU) (B3U) (B2U) (B1G) (B2G) (AU)
                 (B1U) (B3G) (B2G) (AG) (B1G) (B3U) (B2U) (B1U)
                 (B3G) (AG) (B2U) (AU) (B2G) (B1U) (B3G) (AG) (B2U)
                 (AG) (B2U) (B1U) (AG) (AU) (B2U) (B1U) (B3U) (B1G)
                 (B3G) (B2G) (B1U) (B3G) (AG) (B2U) (B2G) (AU)
                 (AG) (B2U) (AG) (B3G) (B3U) (B1U) (B3G) (B1G)
                 (B2U) (AG) (B1U) (B2U) (B3G) (B2U) (B1U) (B3G)
                 (B2G) (AG) (AU) (B2U) (AG) (B1U) (B1U) (B3G) (AG)
                 (B1U) (B3G) (AG) (B3G) (B1U) (B3G) (B2U) (B2U)
                 (B1U) (B1U) (AG) (B3G) (B3G) (B1U)
 The electronic state of the initial guess is 1-AG.
 Requested convergence on RMS density matrix=1.00D-08 within 128 cycles.
 Requested convergence on MAX density matrix=1.00D-06.
 Requested convergence on             energy=1.00D-06.
 No special actions if energy rises.
 Integral accuracy reduced to 1.0D-05 until final iterations.
 Initial convergence to 1.0D-05 achieved.  Increase integral accuracy.
 SCF Done:  E(RB3LYP) =  -386.035357113     A.U. after   13 cycles
            NFock= 13  Conv=0.30D-08     -V/T= 2.0042

 **********************************************************************

            Population analysis using the SCF Density.

 **********************************************************************

 Orbital symmetries:
       Occupied  (AG) (B1U) (B2U) (AG) (B3G) (B1U) (B2U) (AG) (B3G)
                 (B1U) (AG) (B2U) (B1U) (AG) (B3G) (B2U) (B1U)
                 (AG) (B2U) (B3G) (AG) (B1U) (AG) (B2U) (B3G) (B1U)
                 (B3U) (B2U) (B3G) (AG) (B1G) (B2G) (B3U) (AU)
       Virtual   (B1G) (B2G) (B3U) (AG) (B2U) (B1U) (AG) (B3G)
                 (B1U) (AU) (B2U) (B3G) (AG) (B2G) (B3U) (AG) (B1U)
                 (B1U) (B2U) (B1G) (B2U) (AG) (B2G) (B3G) (AU)
                 (B3U) (B2U) (AG) (B3G) (B1U) (B3U) (B1U) (AG)
                 (B2U) (B1G) (B3G) (B2G) (B1U) (B3G) (B2U) (AG)
                 (B1U) (AG) (AU) (AG) (B2U) (B1U) (B2G) (B2U) (B3G)
                 (B1U) (B3G) (AG) (B1U) (B2U) (B3G) (B2U) (B1U)
                 (AG) (B3G) (B1U) (AG) (B1G) (B1U) (B3G) (B2U)
                 (AG) (B3G) (B2U) (B1U) (B3U) (B3G) (B3G) (B1U)
                 (AU) (B3U) (B2G) (B1G) (B1G) (B2U) (AG) (B3U)
                 (AU) (AG) (B2U) (AG) (B1U) (B2G) (B2U) (AG) (B3U)
                 (B3G) (B1U) (AU) (AG) (B3G) (B2U) (B1G) (B2G)
                 (B1U) (B3U) (B2U) (AG) (B3G) (B3G) (B1G) (B1U)
                 (B2G) (B2U) (B3U) (B1G) (B1U) (AG) (AU) (B3U)
                 (AU) (B2G) (B1U) (B3G) (AG) (B2U) (B1G) (AG) (B1U)
                 (B3U) (B2U) (B2G) (AU) (B3G) (B1G) (B2U) (B3U)
                 (B3G) (AU) (AG) (B2G) (B1U) (B2G) (B2U) (AG) (B1U)
                 (B3U) (B3G) (B1G) (B1U) (AG) (B2U) (AG) (B3G)
                 (AU) (B2U) (B3G) (B1U) (AG) (B2G) (B1U) (B2U)
                 (AG) (B3G) (B2U) (B3G) (AG) (B1U) (B2G) (B2U)
                 (AU) (AG) (AG) (B3G) (B1U) (B1U) (B2U) (B3G) (B2U)
                 (B1U) (B3G) (AG) (B2U) (B3G) (B1U) (B1U) (B3G)
                 (B2U) (AG) (B1U) (B3U) (B1G) (AG) (B1G) (B3U)
                 (B3G) (B2G) (AU) (B2U) (B1U) (B1G) (B3U) (B3G)
                 (AU) (B3U) (AG) (B2G) (B2U) (B1G) (B2U) (B3U)
                 (AG) (B2G) (B1U) (AG) (B2U) (B3G) (B1G) (AU) (AG)
                 (B1U) (B2U) (AG) (B3G) (B1U) (AG) (B3U) (B2U)
                 (B3G) (AG) (AU) (B3G) (B1U) (B2G) (B3G) (B1U)
                 (B2U) (B3U) (B2G) (B1G) (AU) (B1G) (B2U) (AG)
                 (B1U) (B1G) (B2G) (AG) (B3U) (B2U) (B1U) (AU)
                 (B3U) (AG) (B3G) (AU) (AG) (B3U) (B2U) (B2G) (B1U)
                 (B2U) (B3G) (B1G) (B3G) (B1U) (B3U) (B3G) (B2U)
                 (B1U) (AG) (B3G) (B1G) (B2G) (AG) (B3U) (B1G)
                 (AU) (B1G) (B2G) (AU) (B2U) (B1G) (B1U) (B3U)
                 (B2G) (B1U) (AU) (B2G) (B1G) (AU) (B3U) (B3U)
                 (B2U) (AG) (B3G) (AU) (B1U) (B2G) (B3G) (B2G)
                 (AG) (B1U) (AU) (B3G) (B2U) (B3U) (B1G) (B2G)
                 (AU) (B3G) (B1U) (B2G) (B1G) (B3U) (AG) (B2U)
                 (B1U) (B3G) (AG) (AU) (B2U) (B2G) (B1U) (AG) (B3G)
                 (B2U) (AG) (B2U) (B1U) (AG) (B3U) (AU) (B2U) (B1G)
                 (B1U) (B2G) (B3G) (B1U) (AG) (B3G) (B2U) (AU)
                 (AG) (B2G) (B2U) (B3G) (B3U) (AG) (B1U) (B1G)
                 (B3G) (B2U) (B1U) (AG) (B2U) (B3G) (B2U) (B2G)
                 (B3G) (B1U) (AU) (AG) (B2U) (AG) (B1U) (B1U) (B3G)
                 (AG) (B1U) (B3G) (AG) (B3G) (B1U) (B3G) (B2U)
                 (B2U) (B1U) (B1U) (AG) (B3G) (B3G) (B1U)
 The electronic state is 1-AG.
 Alpha  occ. eigenvalues --  -10.18814 -10.18769 -10.18000 -10.17999 -10.17988
 Alpha  occ. eigenvalues --  -10.17986 -10.17931 -10.17930 -10.17894 -10.17893
 Alpha  occ. eigenvalues --   -0.87902  -0.82632  -0.77811  -0.74559  -0.72408
 Alpha  occ. eigenvalues --   -0.63063  -0.61670  -0.60111  -0.52080  -0.51502
 Alpha  occ. eigenvalues --   -0.50032  -0.45293  -0.44737  -0.42351  -0.42348
 Alpha  occ. eigenvalues --   -0.40639  -0.39874  -0.37529  -0.34575  -0.33711
 Alpha  occ. eigenvalues --   -0.33631  -0.29427  -0.25330  -0.22599
 Alpha virt. eigenvalues --   -0.05129  -0.02356   0.00872   0.01652   0.02788
 Alpha virt. eigenvalues --    0.03030   0.05464   0.05528   0.07444   0.08127
 Alpha virt. eigenvalues --    0.08574   0.11825   0.12951   0.13732   0.15304
 Alpha virt. eigenvalues --    0.15401   0.16193   0.17830   0.17840   0.18495
 Alpha virt. eigenvalues --    0.20180   0.20630   0.21353   0.22571   0.23225
 Alpha virt. eigenvalues --    0.23555   0.25031   0.25476   0.26511   0.26650
 Alpha virt. eigenvalues --    0.27793   0.28187   0.28538   0.28708   0.30094
 Alpha virt. eigenvalues --    0.30250   0.30380   0.31173   0.33379   0.33578
 Alpha virt. eigenvalues --    0.33603   0.34944   0.35607   0.36025   0.36485
 Alpha virt. eigenvalues --    0.37360   0.39852   0.40182   0.40381   0.41021
 Alpha virt. eigenvalues --    0.43703   0.44802   0.46854   0.47758   0.49000
 Alpha virt. eigenvalues --    0.50969   0.53381   0.53949   0.54024   0.57029
 Alpha virt. eigenvalues --    0.60124   0.60377   0.60531   0.62613   0.63537
 Alpha virt. eigenvalues --    0.64340   0.64455   0.65445   0.66263   0.68548
 Alpha virt. eigenvalues --    0.68655   0.70250   0.73291   0.74004   0.76714
 Alpha virt. eigenvalues --    0.77875   0.78166   0.81057   0.83496   0.84534
 Alpha virt. eigenvalues --    0.86253   0.86958   0.90755   0.92823   0.95068
 Alpha virt. eigenvalues --    0.96956   0.97124   0.99357   1.00120   1.02292
 Alpha virt. eigenvalues --    1.07046   1.07351   1.08353   1.09026   1.09068
 Alpha virt. eigenvalues --    1.09347   1.09830   1.10025   1.14427   1.15506
 Alpha virt. eigenvalues --    1.15844   1.16064   1.16141   1.16222   1.19134
 Alpha virt. eigenvalues --    1.22431   1.22581   1.24134   1.24618   1.24660
 Alpha virt. eigenvalues --    1.26734   1.28002   1.28456   1.29177   1.31951
 Alpha virt. eigenvalues --    1.32334   1.32465   1.35173   1.35667   1.36689
 Alpha virt. eigenvalues --    1.37319   1.39625   1.43655   1.44606   1.45286
 Alpha virt. eigenvalues --    1.47915   1.49579   1.51091   1.51117   1.52462
 Alpha virt. eigenvalues --    1.55088   1.56898   1.58429   1.59909   1.60085
 Alpha virt. eigenvalues --    1.60482   1.61422   1.62036   1.64856   1.65298
 Alpha virt. eigenvalues --    1.67619   1.67890   1.70871   1.73897   1.73979
 Alpha virt. eigenvalues --    1.75072   1.76697   1.76774   1.78996   1.82289
 Alpha virt. eigenvalues --    1.84789   1.86155   1.86581   1.89356   1.90352
 Alpha virt. eigenvalues --    1.91214   1.93070   1.98028   1.99584   1.99686
 Alpha virt. eigenvalues --    2.02184   2.02302   2.06639   2.08874   2.08986
 Alpha virt. eigenvalues --    2.12616   2.14805   2.16857   2.17106   2.19339
 Alpha virt. eigenvalues --    2.20438   2.20578   2.22843   2.26263   2.31938
 Alpha virt. eigenvalues --    2.37851   2.38864   2.41563   2.43180   2.45501
 Alpha virt. eigenvalues --    2.55312   2.61943   2.65747   2.70659   2.75672
 Alpha virt. eigenvalues --    2.80150   2.82944   2.84940   2.99538   3.01249
 Alpha virt. eigenvalues --    3.04781   3.08275   3.14538   3.18580   3.18947
 Alpha virt. eigenvalues --    3.19984   3.21145   3.23762   3.24061   3.24190
 Alpha virt. eigenvalues --    3.24229   3.27589   3.27613   3.29184   3.34672
 Alpha virt. eigenvalues --    3.35234   3.42380   3.43307   3.44659   3.46789
 Alpha virt. eigenvalues --    3.48702   3.50851   3.54029   3.56039   3.57222
 Alpha virt. eigenvalues --    3.58925   3.59712   3.59894   3.61891   3.66591
 Alpha virt. eigenvalues --    3.70245   3.71719   3.76102   3.77124   3.77239
 Alpha virt. eigenvalues --    3.82524   3.83530   3.83932   3.85605   3.88614
 Alpha virt. eigenvalues --    3.91561   3.91664   3.96145   3.97320   3.98006
 Alpha virt. eigenvalues --    3.98536   4.01452   4.02394   4.02883   4.04248
 Alpha virt. eigenvalues --    4.05606   4.05849   4.06937   4.07592   4.10079
 Alpha virt. eigenvalues --    4.12248   4.12667   4.13008   4.13299   4.17618
 Alpha virt. eigenvalues --    4.17858   4.19063   4.20924   4.21348   4.21557
 Alpha virt. eigenvalues --    4.21842   4.22199   4.25140   4.25622   4.28975
 Alpha virt. eigenvalues --    4.29132   4.29603   4.30681   4.30866   4.31223
 Alpha virt. eigenvalues --    4.32579   4.32885   4.33671   4.33872   4.35766
 Alpha virt. eigenvalues --    4.35859   4.35947   4.36399   4.36588   4.37076
 Alpha virt. eigenvalues --    4.40354   4.42144   4.42301   4.42615   4.44603
 Alpha virt. eigenvalues --    4.45910   4.48304   4.48619   4.49671   4.51590
 Alpha virt. eigenvalues --    4.52933   4.53920   4.55352   4.56193   4.56846
 Alpha virt. eigenvalues --    4.57614   4.58207   4.61236   4.64718   4.64875
 Alpha virt. eigenvalues --    4.67354   4.67629   4.70441   4.73418   4.73484
 Alpha virt. eigenvalues --    4.76672   4.77742   4.78017   4.79153   4.79601
 Alpha virt. eigenvalues --    4.81124   4.83725   4.84151   4.86807   4.87715
 Alpha virt. eigenvalues --    4.88039   4.92244   4.96670   4.97491   4.97637
 Alpha virt. eigenvalues --    4.98657   5.01854   5.04211   5.06752   5.08160
 Alpha virt. eigenvalues --    5.08352   5.08696   5.16515   5.16640   5.18055
 Alpha virt. eigenvalues --    5.20486   5.24648   5.25260   5.25688   5.27247
 Alpha virt. eigenvalues --    5.27387   5.29247   5.30264   5.30933   5.34829
 Alpha virt. eigenvalues --    5.35549   5.36276   5.39550   5.40599   5.40880
 Alpha virt. eigenvalues --    5.45621   5.50904   5.50962   5.51288   5.52014
 Alpha virt. eigenvalues --    5.54774   5.56256   5.63795   5.64027   5.65262
 Alpha virt. eigenvalues --    5.66230   5.67330   5.73086   5.75546   5.75767
 Alpha virt. eigenvalues --    5.77619   5.81710   5.82761   5.90659   5.91852
 Alpha virt. eigenvalues --    5.94516   6.00512   6.09732   6.17927   6.21332
 Alpha virt. eigenvalues --    6.26147   6.29401   6.31577   6.41328   6.49497
 Alpha virt. eigenvalues --    6.51488   6.61250   6.80566   6.81442   7.01669
 Alpha virt. eigenvalues --    7.21526  10.71916  12.02876
          Condensed to atoms (all electrons):
               1          2          3          4          5          6
     1  C    5.114305   0.459325  -0.018253  -0.086066   0.016868  -0.000953
     2  C    0.459325   4.899454   0.394276  -0.018253  -0.000953   0.001106
     3  C   -0.018253   0.394276   4.899454   0.459325   0.005312  -0.003511
     4  C   -0.086066  -0.018253   0.459325   5.114305  -0.094476   0.005312
     5  C    0.016868  -0.000953   0.005312  -0.094476   5.114305   0.459325
     6  C   -0.000953   0.001106  -0.003511   0.005312   0.459325   4.899454
     7  C    0.005312  -0.003511   0.001106  -0.000953  -0.018253   0.394276
     8  C   -0.094476   0.005312  -0.000953   0.016868  -0.086066  -0.018253
     9  C    0.404303  -0.044342  -0.048017  -0.049814  -0.049814  -0.048017
    10  C   -0.049814  -0.048017  -0.044342   0.404303   0.404303  -0.044342
    11  H    0.483989  -0.049315   0.017415  -0.005743  -0.000776  -0.000291
    12  H   -0.047321   0.456252  -0.058767   0.015071   0.000398  -0.000043
    13  H    0.015071  -0.058767   0.456252  -0.047321  -0.001093   0.000118
    14  H   -0.005743   0.017415  -0.049315   0.483989  -0.010193   0.002245
    15  H   -0.000776  -0.000291   0.002245  -0.010193   0.483989  -0.049315
    16  H    0.000398  -0.000043   0.000118  -0.001093  -0.047321   0.456252
    17  H   -0.001093   0.000118  -0.000043   0.000398   0.015071  -0.058767
    18  H   -0.010193   0.002245  -0.000291  -0.000776  -0.005743   0.017415
               7          8          9         10         11         12
     1  C    0.005312  -0.094476   0.404303  -0.049814   0.483989  -0.047321
     2  C   -0.003511   0.005312  -0.044342  -0.048017  -0.049315   0.456252
     3  C    0.001106  -0.000953  -0.048017  -0.044342   0.017415  -0.058767
     4  C   -0.000953   0.016868  -0.049814   0.404303  -0.005743   0.015071
     5  C   -0.018253  -0.086066  -0.049814   0.404303  -0.000776   0.000398
     6  C    0.394276  -0.018253  -0.048017  -0.044342  -0.000291  -0.000043
     7  C    4.899454   0.459325  -0.044342  -0.048017   0.002245   0.000118
     8  C    0.459325   5.114305   0.404303  -0.049814  -0.010193  -0.001093
     9  C   -0.044342   0.404303   4.721283   0.533805  -0.072049   0.010493
    10  C   -0.048017  -0.049814   0.533805   4.721283   0.004712  -0.002799
    11  H    0.002245  -0.010193  -0.072049   0.004712   0.635545  -0.010616
    12  H    0.000118  -0.001093   0.010493  -0.002799  -0.010616   0.628864
    13  H   -0.000043   0.000398  -0.002799   0.010493  -0.000107  -0.010760
    14  H   -0.000291  -0.000776   0.004712  -0.072049   0.000121  -0.000107
    15  H    0.017415  -0.005743   0.004712  -0.072049   0.000063   0.000003
    16  H   -0.058767   0.015071  -0.002799   0.010493   0.000003   0.000000
    17  H    0.456252  -0.047321   0.010493  -0.002799  -0.000087  -0.000001
    18  H   -0.049315   0.483989  -0.072049   0.004712  -0.001443  -0.000087
              13         14         15         16         17         18
     1  C    0.015071  -0.005743  -0.000776   0.000398  -0.001093  -0.010193
     2  C   -0.058767   0.017415  -0.000291  -0.000043   0.000118   0.002245
     3  C    0.456252  -0.049315   0.002245   0.000118  -0.000043  -0.000291
     4  C   -0.047321   0.483989  -0.010193  -0.001093   0.000398  -0.000776
     5  C   -0.001093  -0.010193   0.483989  -0.047321   0.015071  -0.005743
     6  C    0.000118   0.002245  -0.049315   0.456252  -0.058767   0.017415
     7  C   -0.000043  -0.000291   0.017415  -0.058767   0.456252  -0.049315
     8  C    0.000398  -0.000776  -0.005743   0.015071  -0.047321   0.483989
     9  C   -0.002799   0.004712   0.004712  -0.002799   0.010493  -0.072049
    10  C    0.010493  -0.072049  -0.072049   0.010493  -0.002799   0.004712
    11  H   -0.000107   0.000121   0.000063   0.000003  -0.000087  -0.001443
    12  H   -0.010760  -0.000107   0.000003   0.000000  -0.000001  -0.000087
    13  H    0.628864  -0.010616  -0.000087  -0.000001   0.000000   0.000003
    14  H   -0.010616   0.635545  -0.001443  -0.000087   0.000003   0.000063
    15  H   -0.000087  -0.001443   0.635545  -0.010616  -0.000107   0.000121
    16  H   -0.000001  -0.000087  -0.010616   0.628864  -0.010760  -0.000107
    17  H    0.000000   0.000003  -0.000107  -0.010760   0.628864  -0.010616
    18  H    0.000003   0.000063   0.000121  -0.000107  -0.010616   0.635545
 Mulliken charges:
               1
     1  C   -0.184882
     2  C   -0.012010
     3  C   -0.012010
     4  C   -0.184882
     5  C   -0.184882
     6  C   -0.012010
     7  C   -0.012010
     8  C   -0.184882
     9  C    0.339938
    10  C    0.339938
    11  H    0.006526
    12  H    0.020397
    13  H    0.020397
    14  H    0.006526
    15  H    0.006526
    16  H    0.020397
    17  H    0.020397
    18  H    0.006526
 Sum of Mulliken charges =   0.00000
 Mulliken charges with hydrogens summed into heavy atoms:
               1
     1  C   -0.178356
     2  C    0.008387
     3  C    0.008387
     4  C   -0.178356
     5  C   -0.178356
     6  C    0.008387
     7  C    0.008387
     8  C   -0.178356
     9  C    0.339938
    10  C    0.339938
 Electronic spatial extent (au):  <R**2>=           1291.9489
 Charge=             -0.0000 electrons
 Dipole moment (field-independent basis, Debye):
    X=              0.0000    Y=             -0.0000    Z=              0.0000  Tot=              0.0000
 Quadrupole moment (field-independent basis, Debye-Ang):
   XX=            -64.2882   YY=            -52.2240   ZZ=            -52.3504
   XY=             -0.0000   XZ=              0.0000   YZ=             -0.0000
 Traceless Quadrupole moment (field-independent basis, Debye-Ang):
   XX=             -8.0007   YY=              4.0636   ZZ=              3.9371
   XY=             -0.0000   XZ=              0.0000   YZ=             -0.0000
 Octapole moment (field-independent basis, Debye-Ang**2):
  XXX=              0.0000  YYY=             -0.0000  ZZZ=              0.0000  XYY=              0.0000
  XXY=              0.0000  XXZ=              0.0000  XZZ=              0.0000  YZZ=              0.0000
  YYZ=              0.0000  XYZ=             -0.0000
 Hexadecapole moment (field-independent basis, Debye-Ang**3):
 XXXX=            -78.6369 YYYY=          -1106.1536 ZZZZ=           -491.4966 XXXY=             -0.0000
 XXXZ=              0.0000 YYYX=             -0.0000 YYYZ=             -0.0000 ZZZX=              0.0000
 ZZZY=              0.0000 XXYY=           -243.0022 XXZZ=           -114.5565 YYZZ=           -271.5942
 XXYZ=             -0.0000 YYXZ=              0.0000 ZZXY=             -0.0000
 N-N= 4.578903622507D+02 E-N=-1.811180235025D+03  KE= 3.844345286617D+02
 Symmetry AG   KE= 1.128682311860D+02
 Symmetry B1G  KE= 2.001839421360D+00
 Symmetry B2G  KE= 2.168362868159D+00
 Symmetry B3G  KE= 7.577437010110D+01
 Symmetry AU   KE= 2.372478240676D+00
 Symmetry B1U  KE= 1.072241530375D+02
 Symmetry B2U  KE= 7.787959539756D+01
 Symmetry B3U  KE= 4.145498409323D+00
 Calling FoFJK, ICntrl=      2127 FMM=F ISym2X=1 I1Cent= 0 IOpClX= 0 NMat=1 NMatS=1 NMatT=0.
 ***** Axes restored to original set *****
 -------------------------------------------------------------------
 Center     Atomic                   Forces (Hartrees/Bohr)
 Number     Number              X              Y              Z
 -------------------------------------------------------------------
      1        6           0.000000000    0.000420961   -0.000373081
      2        6           0.000000000   -0.000570579   -0.000006001
      3        6           0.000000000   -0.000570579    0.000006001
      4        6          -0.000000000    0.000420961    0.000373081
      5        6           0.000000000   -0.000420961    0.000373081
      6        6           0.000000000    0.000570579    0.000006001
      7        6           0.000000000    0.000570579   -0.000006001
      8        6          -0.000000000   -0.000420961   -0.000373081
      9        6          -0.000000000   -0.000000000   -0.000185541
     10        6          -0.000000000    0.000000000    0.000185541
     11        1           0.000000000   -0.000078580   -0.002429746
     12        1           0.000000000   -0.002194622   -0.001203876
     13        1          -0.000000000   -0.002194622    0.001203876
     14        1          -0.000000000   -0.000078580    0.002429746
     15        1          -0.000000000    0.000078580    0.002429746
     16        1           0.000000000    0.002194622    0.001203876
     17        1           0.000000000    0.002194622   -0.001203876
     18        1          -0.000000000    0.000078580   -0.002429746
 -------------------------------------------------------------------
 Cartesian Forces:  Max     0.002429746 RMS     0.000975049

 GradGradGradGradGradGradGradGradGradGradGradGradGradGradGradGradGradGrad
 Berny optimization.
 FormGI is forming the generalized inverse of G from B-inverse, IUseBI=4.
 Internal  Forces:  Max     0.003130093 RMS     0.001231477
 Search for a local minimum.
 Step number   1 out of a maximum of  103
 All quantities printed in internal units (Hartrees-Bohrs-Radians)
 Mixed Optimization -- RFO/linear search
 Second derivative matrix not updated -- first step.
 ITU=  0
     Eigenvalues ---    0.01779   0.01794   0.01799   0.02013   0.02023
     Eigenvalues ---    0.02036   0.02055   0.02139   0.02139   0.02162
     Eigenvalues ---    0.02162   0.02196   0.02220   0.02285   0.02301
     Eigenvalues ---    0.16000   0.16000   0.16000   0.16000   0.16000
     Eigenvalues ---    0.16000   0.16000   0.16000   0.22000   0.22000
     Eigenvalues ---    0.22333   0.22796   0.24271   0.24708   0.35244
     Eigenvalues ---    0.35244   0.35244   0.35244   0.35352   0.35352
     Eigenvalues ---    0.35352   0.35352   0.36655   0.39931   0.40405
     Eigenvalues ---    0.41310   0.42105   0.42823   0.42877   0.48343
     Eigenvalues ---    0.48551   0.49682   0.49717
 RFO step:  Lambda=-3.40973887D-04 EMin= 1.77916707D-02
 Linear search not attempted -- first point.
 Iteration  1 RMS(Cart)=  0.00581894 RMS(Int)=  0.00000060
 Iteration  2 RMS(Cart)=  0.00000096 RMS(Int)=  0.00000003
 ClnCor:  largest displacement from symmetrization is 7.64D-13 for atom    17.
 Variable       Old X    -DE/DX   Delta X   Delta X   Delta X     New X
                                 (Linear)    (Quad)   (Total)
    R1        2.59561  -0.00313   0.00000  -0.00626  -0.00626   2.58935
    R2        2.68259  -0.00276   0.00000  -0.00645  -0.00645   2.67614
    R3        2.05281  -0.00243   0.00000  -0.00689  -0.00689   2.04592
    R4        2.67370  -0.00268   0.00000  -0.00630  -0.00630   2.66740
    R5        2.05107  -0.00250   0.00000  -0.00707  -0.00707   2.04399
    R6        2.59561  -0.00313   0.00000  -0.00626  -0.00626   2.58935
    R7        2.05107  -0.00250   0.00000  -0.00707  -0.00707   2.04399
    R8        2.68259  -0.00276   0.00000  -0.00645  -0.00645   2.67614
    R9        2.05281  -0.00243   0.00000  -0.00689  -0.00689   2.04592
   R10        2.59561  -0.00313   0.00000  -0.00626  -0.00626   2.58935
   R11        2.68259  -0.00276   0.00000  -0.00645  -0.00645   2.67614
   R12        2.05281  -0.00243   0.00000  -0.00689  -0.00689   2.04592
   R13        2.67370  -0.00268   0.00000  -0.00630  -0.00630   2.66740
   R14        2.05107  -0.00250   0.00000  -0.00707  -0.00707   2.04399
   R15        2.59561  -0.00313   0.00000  -0.00626  -0.00626   2.58935
   R16        2.05107  -0.00250   0.00000  -0.00707  -0.00707   2.04399
   R17        2.68259  -0.00276   0.00000  -0.00645  -0.00645   2.67614
   R18        2.05281  -0.00243   0.00000  -0.00689  -0.00689   2.04592
   R19        2.70502  -0.00285   0.00000  -0.00676  -0.00676   2.69826
    A1        2.10975  -0.00007   0.00000  -0.00023  -0.00023   2.10952
    A2        2.09991   0.00011   0.00000   0.00063   0.00063   2.10054
    A3        2.07352  -0.00005   0.00000  -0.00039  -0.00039   2.07313
    A4        2.09947   0.00007   0.00000   0.00008   0.00008   2.09955
    A5        2.09655  -0.00007   0.00000  -0.00027  -0.00027   2.09627
    A6        2.08717   0.00000   0.00000   0.00019   0.00019   2.08736
    A7        2.09947   0.00007   0.00000   0.00008   0.00008   2.09955
    A8        2.08717   0.00000   0.00000   0.00019   0.00019   2.08736
    A9        2.09655  -0.00007   0.00000  -0.00027  -0.00027   2.09627
   A10        2.10975  -0.00007   0.00000  -0.00023  -0.00023   2.10952
   A11        2.09991   0.00011   0.00000   0.00063   0.00063   2.10054
   A12        2.07352  -0.00005   0.00000  -0.00039  -0.00039   2.07313
   A13        2.10975  -0.00007   0.00000  -0.00023  -0.00023   2.10952
   A14        2.09991   0.00011   0.00000   0.00063   0.00063   2.10054
   A15        2.07352  -0.00005   0.00000  -0.00039  -0.00039   2.07313
   A16        2.09947   0.00007   0.00000   0.00008   0.00008   2.09955
   A17        2.09655  -0.00007   0.00000  -0.00027  -0.00027   2.09627
   A18        2.08717   0.00000   0.00000   0.00019   0.00019   2.08736
   A19        2.09947   0.00007   0.00000   0.00008   0.00008   2.09955
   A20        2.08717   0.00000   0.00000   0.00019   0.00019   2.08736
   A21        2.09655  -0.00007   0.00000  -0.00027  -0.00027   2.09627
   A22        2.10975  -0.00007   0.00000  -0.00023  -0.00023   2.10952
   A23        2.09991   0.00011   0.00000   0.00063   0.00063   2.10054
   A24        2.07352  -0.00005   0.00000  -0.00039  -0.00039   2.07313
   A25        2.13527   0.00001   0.00000  -0.00031  -0.00031   2.13496
   A26        2.07396  -0.00000   0.00000   0.00015   0.00015   2.07411
   A27        2.07396  -0.00000   0.00000   0.00015   0.00015   2.07411
   A28        2.13527   0.00001   0.00000  -0.00031  -0.00031   2.13496
   A29        2.07396  -0.00000   0.00000   0.00015   0.00015   2.07411
   A30        2.07396  -0.00000   0.00000   0.00015   0.00015   2.07411
    D1       -0.00000   0.00000   0.00000   0.00000   0.00000   0.00000
    D2        3.14159   0.00000   0.00000   0.00000   0.00000   3.14159
    D3        3.14159   0.00000   0.00000   0.00000   0.00000   3.14159
    D4        0.00000  -0.00000   0.00000  -0.00000  -0.00000   0.00000
    D5        3.14159  -0.00000   0.00000  -0.00000   0.00000   3.14159
    D6        0.00000  -0.00000   0.00000  -0.00000   0.00000   0.00000
    D7        0.00000  -0.00000   0.00000  -0.00000   0.00000   0.00000
    D8        3.14159   0.00000   0.00000   0.00000   0.00000   3.14159
    D9        0.00000  -0.00000   0.00000  -0.00000   0.00000   0.00000
   D10        3.14159  -0.00000   0.00000  -0.00000   0.00000   3.14159
   D11        3.14159  -0.00000   0.00000  -0.00000   0.00000   3.14159
   D12       -0.00000  -0.00000   0.00000  -0.00000   0.00000   0.00000
   D13        0.00000  -0.00000   0.00000  -0.00000   0.00000   0.00000
   D14        3.14159   0.00000   0.00000   0.00000   0.00000   3.14159
   D15        3.14159  -0.00000   0.00000  -0.00000   0.00000   3.14159
   D16        0.00000   0.00000   0.00000   0.00000   0.00000   0.00000
   D17        3.14159   0.00000   0.00000   0.00000   0.00000   3.14159
   D18       -0.00000   0.00000   0.00000   0.00000   0.00000   0.00000
   D19       -0.00000   0.00000   0.00000   0.00000   0.00000   0.00000
   D20        3.14159   0.00000   0.00000   0.00000   0.00000   3.14159
   D21        0.00000   0.00000   0.00000   0.00000   0.00000   0.00000
   D22        3.14159   0.00000   0.00000   0.00000   0.00000   3.14159
   D23        3.14159  -0.00000   0.00000  -0.00000   0.00000   3.14159
   D24       -0.00000   0.00000   0.00000   0.00000   0.00000   0.00000
   D25        3.14159  -0.00000   0.00000  -0.00000   0.00000   3.14159
   D26       -0.00000  -0.00000   0.00000  -0.00000   0.00000   0.00000
   D27        0.00000  -0.00000   0.00000  -0.00000   0.00000   0.00000
   D28        3.14159   0.00000   0.00000   0.00000   0.00000   3.14159
   D29        0.00000  -0.00000   0.00000  -0.00000   0.00000   0.00000
   D30        3.14159   0.00000   0.00000   0.00000   0.00000   3.14159
   D31        3.14159  -0.00000   0.00000  -0.00000   0.00000   3.14159
   D32       -0.00000  -0.00000   0.00000  -0.00000   0.00000   0.00000
   D33       -0.00000  -0.00000   0.00000  -0.00000   0.00000   0.00000
   D34        3.14159   0.00000   0.00000   0.00000   0.00000   3.14159
   D35        3.14159  -0.00000   0.00000  -0.00000   0.00000   3.14159
   D36        0.00000  -0.00000   0.00000  -0.00000   0.00000   0.00000
   D37        3.14159   0.00000   0.00000   0.00000   0.00000   3.14159
   D38       -0.00000   0.00000   0.00000   0.00000   0.00000   0.00000
   D39       -0.00000   0.00000   0.00000   0.00000   0.00000   0.00000
   D40        3.14159   0.00000   0.00000   0.00000   0.00000   3.14159
   D41       -0.00000  -0.00000   0.00000  -0.00000   0.00000   0.00000
   D42        3.14159  -0.00000   0.00000  -0.00000   0.00000   3.14159
   D43        3.14159   0.00000   0.00000   0.00000   0.00000   3.14159
   D44        0.00000  -0.00000   0.00000  -0.00000   0.00000   0.00000
         Item               Value     Threshold  Converged?
 Maximum Force            0.003130     0.000450     NO 
 RMS     Force            0.001231     0.000300     NO 
 Maximum Displacement     0.017702     0.001800     NO 
 RMS     Displacement     0.005819     0.001200     NO 
 Predicted change in Energy=-1.706304D-04
 GradGradGradGradGradGradGradGradGradGradGradGradGradGradGradGradGradGrad

                          Input orientation:                          
 ---------------------------------------------------------------------
 Center     Atomic      Atomic             Coordinates (Angstroms)
 Number     Number       Type             X           Y           Z
 ---------------------------------------------------------------------
      1          6           0       -0.000000    1.240534    1.396987
      2          6           0       -0.000000    2.423633    0.705763
      3          6           0       -0.000000    2.423633   -0.705763
      4          6           0        0.000000    1.240534   -1.396987
      5          6           0       -0.000000   -1.240534   -1.396987
      6          6           0       -0.000000   -2.423633   -0.705763
      7          6           0       -0.000000   -2.423633    0.705763
      8          6           0       -0.000000   -1.240534    1.396987
      9          6           0        0.000000    0.000000    0.713929
     10          6           0        0.000000   -0.000000   -0.713929
     11          1           0       -0.000000    1.239465    2.479641
     12          1           0       -0.000000    3.364137    1.239978
     13          1           0       -0.000000    3.364137   -1.239978
     14          1           0        0.000000    1.239465   -2.479641
     15          1           0       -0.000000   -1.239465   -2.479641
     16          1           0       -0.000000   -3.364137   -1.239978
     17          1           0       -0.000000   -3.364137    1.239978
     18          1           0       -0.000000   -1.239465    2.479641
 ---------------------------------------------------------------------
                    Distance matrix (angstroms):
                    1          2          3          4          5
     1  C    0.000000
     2  C    1.370224   0.000000
     3  C    2.412734   1.411527   0.000000
     4  C    2.793975   2.412734   1.370224   0.000000
     5  C    3.736575   4.224651   3.728795   2.481068   0.000000
     6  C    4.224651   5.048604   4.847266   3.728795   1.370224
     7  C    3.728795   4.847266   5.048604   4.224651   2.412734
     8  C    2.481068   3.728795   4.224651   3.736575   2.793975
     9  C    1.416154   2.423647   2.808830   2.448447   2.448447
    10  C    2.448447   2.808830   2.423647   1.416154   1.416154
    11  H    1.082654   2.132814   3.398390   3.876629   4.602026
    12  H    2.129400   1.081635   2.161125   3.385747   5.306278
    13  H    3.385747   2.161125   1.081635   2.129400   4.607347
    14  H    3.876629   3.398390   2.132814   1.082654   2.706018
    15  H    4.602026   4.854389   4.070004   2.706018   1.082654
    16  H    5.306278   6.106079   5.812372   4.607347   2.129400
    17  H    4.607347   5.812372   6.106079   5.306278   3.385747
    18  H    2.706018   4.070004   4.854389   4.602026   3.876629
                    6          7          8          9         10
     6  C    0.000000
     7  C    1.411527   0.000000
     8  C    2.412734   1.370224   0.000000
     9  C    2.808830   2.423647   1.416154   0.000000
    10  C    2.423647   2.808830   2.448447   1.427859   0.000000
    11  H    4.854389   4.070004   2.706018   2.157316   3.425663
    12  H    6.106079   5.812372   4.607347   3.405018   3.890395
    13  H    5.812372   6.106079   5.306278   3.890395   3.405018
    14  H    4.070004   4.854389   4.602026   3.425663   2.157316
    15  H    2.132814   3.398390   3.876629   3.425663   2.157316
    16  H    1.081635   2.161125   3.385747   3.890395   3.405018
    17  H    2.161125   1.081635   2.129400   3.405018   3.890395
    18  H    3.398390   2.132814   1.082654   2.157316   3.425663
                   11         12         13         14         15
    11  H    0.000000
    12  H    2.459878   0.000000
    13  H    4.283667   2.479957   0.000000
    14  H    4.959283   4.283667   2.459878   0.000000
    15  H    5.544328   5.918507   4.767590   2.478930   0.000000
    16  H    5.918507   7.170765   6.728275   4.767590   2.459878
    17  H    4.767590   6.728275   7.170765   5.918507   4.283667
    18  H    2.478930   4.767590   5.918507   5.544328   4.959283
                   16         17         18
    16  H    0.000000
    17  H    2.479957   0.000000
    18  H    4.283667   2.459878   0.000000
 Stoichiometry    C10H8
 Framework group  D2H[C2"(C.C),SG(C8H8)]
 Deg. of freedom     9
 Full point group                 D2H     NOp   8
 Largest Abelian subgroup         D2H     NOp   8
 Largest concise Abelian subgroup D2      NOp   4
                         Standard orientation:                         
 ---------------------------------------------------------------------
 Center     Atomic      Atomic             Coordinates (Angstroms)
 Number     Number       Type             X           Y           Z
 ---------------------------------------------------------------------
      1          6           0        0.000000    1.240534    1.396987
      2          6           0       -0.000000    2.423633    0.705763
      3          6           0        0.000000    2.423633   -0.705763
      4          6           0        0.000000    1.240534   -1.396987
      5          6           0       -0.000000   -1.240534   -1.396987
      6          6           0       -0.000000   -2.423633   -0.705763
      7          6           0       -0.000000   -2.423633    0.705763
      8          6           0       -0.000000   -1.240534    1.396987
      9          6           0        0.000000    0.000000    0.713929
     10          6           0        0.000000    0.000000   -0.713929
     11          1           0        0.000000    1.239465    2.479641
     12          1           0       -0.000000    3.364137    1.239978
     13          1           0        0.000000    3.364137   -1.239978
     14          1           0        0.000000    1.239465   -2.479641
     15          1           0       -0.000000   -1.239465   -2.479641
     16          1           0       -0.000000   -3.364137   -1.239978
     17          1           0       -0.000000   -3.364137    1.239978
     18          1           0       -0.000000   -1.239465    2.479641
 ---------------------------------------------------------------------
 Rotational constants (GHZ):           3.1428581           1.2397761           0.8890635
 Basis read from rwf:  (5D, 7F)
 There are    86 symmetry adapted cartesian basis functions of AG  symmetry.
 There are    33 symmetry adapted cartesian basis functions of B1G symmetry.
 There are    38 symmetry adapted cartesian basis functions of B2G symmetry.
 There are    78 symmetry adapted cartesian basis functions of B3G symmetry.
 There are    33 symmetry adapted cartesian basis functions of AU  symmetry.
 There are    86 symmetry adapted cartesian basis functions of B1U symmetry.
 There are    78 symmetry adapted cartesian basis functions of B2U symmetry.
 There are    38 symmetry adapted cartesian basis functions of B3U symmetry.
 There are    73 symmetry adapted basis functions of AG  symmetry.
 There are    31 symmetry adapted basis functions of B1G symmetry.
 There are    35 symmetry adapted basis functions of B2G symmetry.
 There are    67 symmetry adapted basis functions of B3G symmetry.
 There are    31 symmetry adapted basis functions of AU  symmetry.
 There are    73 symmetry adapted basis functions of B1U symmetry.
 There are    67 symmetry adapted basis functions of B2U symmetry.
 There are    35 symmetry adapted basis functions of B3U symmetry.
   412 basis functions,   654 primitive gaussians,   470 cartesian basis functions
    34 alpha electrons       34 beta electrons
       nuclear repulsion energy       459.0467115393 Hartrees.
 NAtoms=   18 NActive=   18 NUniq=    5 SFac= 4.00D+00 NAtFMM=   60 NAOKFM=F Big=F
 Integral buffers will be    131072 words long.
 Raffenetti 2 integral format.
 Two-electron integral symmetry is turned on.
 One-electron integrals computed using PRISM.
 NBasis=   412 RedAO= T EigKep=  1.33D-05  NBF=    73    31    35    67    31    73    67    35
 NBsUse=   412 1.00D-06 EigRej= -1.00D+00 NBFU=    73    31    35    67    31    73    67    35
 Initial guess from the checkpoint file:  "/wrk/irikura/Gau-20267.chk"
 B after Tr=     0.000000    0.000000   -0.000000
         Rot=    1.000000    0.000000    0.000000    0.000000 Ang=   0.00 deg.
 Initial guess orbital symmetries:
       Occupied  (AG) (B1U) (B2U) (AG) (B3G) (B1U) (B2U) (AG) (B3G)
                 (B1U) (AG) (B2U) (B1U) (AG) (B3G) (B2U) (B1U)
                 (AG) (B2U) (B3G) (AG) (B1U) (AG) (B2U) (B3G) (B1U)
                 (B3U) (B2U) (B3G) (AG) (B1G) (B2G) (B3U) (AU)
       Virtual   (B1G) (B2G) (B3U) (AG) (B2U) (B1U) (AG) (B3G)
                 (B1U) (AU) (B2U) (B3G) (AG) (B2G) (B3U) (AG) (B1U)
                 (B1U) (B2U) (B1G) (B2U) (AG) (B2G) (B3G) (AU)
                 (B3U) (B2U) (AG) (B3G) (B1U) (B3U) (B1U) (AG)
                 (B2U) (B1G) (B3G) (B2G) (B1U) (B3G) (B2U) (AG)
                 (B1U) (AG) (AU) (AG) (B2U) (B1U) (B2G) (B2U) (B3G)
                 (B1U) (B3G) (AG) (B1U) (B2U) (B3G) (B2U) (B1U)
                 (AG) (B3G) (B1U) (AG) (B1G) (B1U) (B3G) (B2U)
                 (AG) (B3G) (B2U) (B1U) (B3U) (B3G) (B3G) (B1U)
                 (AU) (B3U) (B2G) (B1G) (B1G) (B2U) (AG) (B3U)
                 (AU) (AG) (B2U) (AG) (B1U) (B2G) (B2U) (AG) (B3U)
                 (B3G) (B1U) (AU) (AG) (B3G) (B2U) (B1G) (B2G)
                 (B1U) (B3U) (B2U) (AG) (B3G) (B3G) (B1G) (B1U)
                 (B2G) (B2U) (B3U) (B1G) (B1U) (AG) (AU) (B3U)
[...]
 ! A30   A(5,10,9)             118.8379         -DE/DX =    0.0                 !
 ! D1    D(9,1,2,3)              0.0            -DE/DX =    0.0                 !
 ! D2    D(9,1,2,12)           180.0            -DE/DX =    0.0                 !
 ! D3    D(11,1,2,3)           180.0            -DE/DX =    0.0                 !
 ! D4    D(11,1,2,12)            0.0            -DE/DX =    0.0                 !
 ! D5    D(2,1,9,8)            180.0            -DE/DX =    0.0                 !
 ! D6    D(2,1,9,10)             0.0            -DE/DX =    0.0                 !
 ! D7    D(11,1,9,8)             0.0            -DE/DX =    0.0                 !
 ! D8    D(11,1,9,10)          180.0            -DE/DX =    0.0                 !
 ! D9    D(1,2,3,4)              0.0            -DE/DX =    0.0                 !
 ! D10   D(1,2,3,13)           180.0            -DE/DX =    0.0                 !
 ! D11   D(12,2,3,4)           180.0            -DE/DX =    0.0                 !
 ! D12   D(12,2,3,13)            0.0            -DE/DX =    0.0                 !
 ! D13   D(2,3,4,10)             0.0            -DE/DX =    0.0                 !
 ! D14   D(2,3,4,14)           180.0            -DE/DX =    0.0                 !
 ! D15   D(13,3,4,10)          180.0            -DE/DX =    0.0                 !
 ! D16   D(13,3,4,14)            0.0            -DE/DX =    0.0                 !
 ! D17   D(3,4,10,5)           180.0            -DE/DX =    0.0                 !
 ! D18   D(3,4,10,9)             0.0            -DE/DX =    0.0                 !
 ! D19   D(14,4,10,5)            0.0            -DE/DX =    0.0                 !
 ! D20   D(14,4,10,9)          180.0            -DE/DX =    0.0                 !
 ! D21   D(10,5,6,7)             0.0            -DE/DX =    0.0                 !
 ! D22   D(10,5,6,16)          180.0            -DE/DX =    0.0                 !
 ! D23   D(15,5,6,7)           180.0            -DE/DX =    0.0                 !
 ! D24   D(15,5,6,16)            0.0            -DE/DX =    0.0                 !
 ! D25   D(6,5,10,4)           180.0            -DE/DX =    0.0                 !
 ! D26   D(6,5,10,9)             0.0            -DE/DX =    0.0                 !
 ! D27   D(15,5,10,4)            0.0            -DE/DX =    0.0                 !
 ! D28   D(15,5,10,9)          180.0            -DE/DX =    0.0                 !
 ! D29   D(5,6,7,8)              0.0            -DE/DX =    0.0                 !
 ! D30   D(5,6,7,17)           180.0            -DE/DX =    0.0                 !
 ! D31   D(16,6,7,8)           180.0            -DE/DX =    0.0                 !
 ! D32   D(16,6,7,17)            0.0            -DE/DX =    0.0                 !
 ! D33   D(6,7,8,9)              0.0            -DE/DX =    0.0                 !
 ! D34   D(6,7,8,18)           180.0            -DE/DX =    0.0                 !
 ! D35   D(17,7,8,9)           180.0            -DE/DX =    0.0                 !
 ! D36   D(17,7,8,18)            0.0            -DE/DX =    0.0                 !
 ! D37   D(7,8,9,1)            180.0            -DE/DX =    0.0                 !
 ! D38   D(7,8,9,10)             0.0            -DE/DX =    0.0                 !
 ! D39   D(18,8,9,1)             0.0            -DE/DX =    0.0                 !
 ! D40   D(18,8,9,10)          180.0            -DE/DX =    0.0                 !
 ! D41   D(1,9,10,4)             0.0            -DE/DX =    0.0                 !
 ! D42   D(1,9,10,5)           180.0            -DE/DX =    0.0                 !
 ! D43   D(8,9,10,4)           180.0            -DE/DX =    0.0                 !
 ! D44   D(8,9,10,5)             0.0            -DE/DX =    0.0                 !
 --------------------------------------------------------------------------------
 GradGradGradGradGradGradGradGradGradGradGradGradGradGradGradGradGradGrad

 Dipole is zero, so no output in dipole orientation.

 ----------------------------------------------------------------------

 Electric dipole moment (input orientation):
 (Debye = 10**-18 statcoulomb cm , SI units = C m)
                  (au)            (Debye)         (10**-30 SI)
   Tot        0.000000D+00      0.000000D+00      0.000000D+00
   x          0.000000D+00      0.000000D+00      0.000000D+00
   y          0.000000D+00      0.000000D+00      0.000000D+00
   z          0.000000D+00      0.000000D+00      0.000000D+00

 Dipole polarizability, Alpha (input orientation).
 (esu units = cm**3 , SI units = C**2 m**2 J**-1)
 Alpha(0;0):
               (au)            (10**-24 esu)      (10**-40 SI)
   iso        0.115558D+03      0.171239D+02      0.190530D+02
   aniso      0.929629D+02      0.137757D+02      0.153275D+02
   xx         0.597050D+02      0.884737D+01      0.984403D+01
   yx         0.000000D+00      0.000000D+00      0.000000D+00
   yy         0.166745D+03      0.247090D+02      0.274925D+02
   zx         0.000000D+00      0.000000D+00      0.000000D+00
   zy         0.000000D+00      0.000000D+00      0.000000D+00
   zz         0.120225D+03      0.178155D+02      0.198224D+02

 ----------------------------------------------------------------------
 1\1\GINC-GAMBA\Freq\RB3LYP\Gen\C10H8\IRIKURA\16-Jun-2022\0\\#N Geom=Al
 lCheck Guess=TCheck SCRF=Check GenChk RB3LYP/ChkBas Freq\\naphthalene,
  B3LYP/pcseg-2\\0,1\C,0.,1.2405337837,1.3969873142\C,0.,2.4236331234,0
 .7057634856\C,0.,2.4236331234,-0.7057634856\C,0.,1.2405337837,-1.39698
 73142\C,0.,-1.2405337837,-1.3969873142\C,0.,-2.4236331234,-0.705763485
 6\C,0.,-2.4236331234,0.7057634856\C,0.,-1.2405337837,1.3969873142\C,0.
 ,0.,0.7139294291\C,0.,0.,-0.7139294291\H,0.,1.2394648661,2.4796412708\
 H,0.,3.3641374339,1.2399784043\H,0.,3.3641374339,-1.2399784043\H,0.,1.
 2394648661,-2.4796412708\H,0.,-1.2394648661,-2.4796412708\H,0.,-3.3641
 374339,-1.2399784043\H,0.,-3.3641374339,1.2399784043\H,0.,-1.239464866
 1,2.4796412708\\Version=ES64L-G16RevB.01\State=1-AG\HF=-386.0355143\RM
 SD=6.853e-10\RMSF=9.542e-05\ZeroPoint=0.1473302\Thermal=0.154135\Dipol
 e=0.,0.,0.\DipoleDeriv=-0.134737,0.,0.,0.,-0.0244363,0.0043152,0.,0.03
 48398,0.1161894,-0.140887,0.,0.,0.,-0.0184784,0.112106,0.,0.067525,0.0
 37374,-0.140887,0.,0.,0.,-0.0184784,-0.112106,0.,-0.067525,0.0373739,-
 0.134737,0.,0.,0.,-0.0244363,-0.0043152,0.,-0.0348398,0.1161894,-0.134
 737,0.,0.,0.,-0.0244363,0.0043152,0.,0.0348398,0.1161894,-0.140887,0.,
 0.,0.,-0.0184784,0.112106,0.,0.067525,0.037374,-0.140887,0.,0.,0.,-0.0
 184784,-0.112106,0.,-0.067525,0.0373739,-0.134737,0.,0.,0.,-0.0244363,
 -0.0043152,0.,-0.0348398,0.1161894,0.0219782,0.,0.,0.,0.117055,0.,0.,0
 .,-0.1566797,0.0219782,0.,0.,0.,0.117055,0.,0.,0.,-0.1566797,0.1285066
 ,0.,0.,0.,0.0534573,0.0286692,0.,-0.0202473,-0.0985073,0.1361283,0.,0.
 ,0.,-0.06907,-0.0744729,0.,-0.0799004,0.0232838,0.1361283,0.,0.,0.,-0.
 06907,0.0744729,0.,0.0799004,0.0232838,0.1285066,0.,0.,0.,0.0534573,-0
 .0286692,0.,0.0202473,-0.0985073,0.1285066,0.,0.,0.,0.0534573,0.028669
 2,0.,-0.0202473,-0.0985073,0.1361283,0.,0.,0.,-0.06907,-0.0744729,0.,-
 0.0799004,0.0232839,0.1361283,0.,0.,0.,-0.06907,0.0744729,0.,0.0799004
 ,0.0232838,0.1285066,0.,0.,0.,0.0534573,-0.0286692,0.,0.0202473,-0.098
 5073\Polar=59.7050089,0.,166.7445264,0.,0.,120.2246648\Quadrupole=-5.8
 781136,2.9802338,2.8978798,0.,0.,0.\PG=D02H [C2"(C1.C1),SG(C8H8)]\NIma
 g=0\\0.13615757,0.,0.66884005,0.,-0.04794137,0.73060424,-0.06256862,0.
 ,0.,0.13521607,0.,-0.31672090,0.13710079,0.,0.74940886,0.,0.07906163,-
 0.19186218,0.,0.01374287,0.64696079,0.00811319,0.,0.,-0.06403931,0.,0.
 ,0.13521607,0.,0.02932931,0.02941526,0.,-0.12612798,0.03121977,0.,0.74
 940886,0.,0.07082786,-0.03218190,0.,-0.03121977,-0.28731530,0.,-0.0137
 4287,0.64696079,-0.00335283,0.,0.,0.00811319,0.,0.,-0.06256862,0.,0.,0
 .13615757,0.,-0.05515367,0.00331419,0.,0.02932931,-0.07082786,0.,-0.31
 672090,-0.07906163,0.,0.66884005,0.,-0.00331419,-0.00038771,0.,-0.0294
 1526,-0.03218190,0.,-0.13710079,-0.19186218,0.,0.04794137,0.73060424,0
 .00514454,0.,0.,-0.00088739,0.,0.,0.00610070,0.,0.,0.00386570,0.,0.,0.
 13615757,0.,-0.01487771,0.00097285,0.,0.00824367,-0.01845733,0.,0.0127
 7205,0.02549120,0.,-0.06875507,-0.00968507,0.,0.66884005,0.,0.00097285
 ,-0.00562615,0.,0.00121521,-0.00208868,0.,0.00610914,0.00008279,0.,0.0
 0968507,0.01602300,0.,-0.04794137,0.73060424,-0.00088739,0.,0.,0.00039
 114,0.,0.,-0.00027814,0.,0.,0.00610070,0.,0.,-0.06256862,0.,0.,0.13521
 607,0.,0.00824367,0.00121521,0.,-0.00511100,0.00866835,0.,-0.00652776,
 -0.01004281,0.,0.01277205,-0.00610914,0.,-0.31672090,0.13710079,0.,0.7
 4940886,0.,-0.01845733,-0.00208868,0.,0.00866835,-0.01654339,0.,0.0100
 4281,0.01730456,0.,-0.02549120,0.00008279,0.,0.07906163,-0.19186218,0.
 ,0.01374287,0.64696079,0.00610070,0.,0.,-0.00027814,0.,0.,0.00039114,0
 .,0.,-0.00088739,0.,0.,0.00811319,0.,0.,-0.06403931,0.,0.,0.13521607,0
 .,0.01277205,0.00610914,0.,-0.00652776,0.01004281,0.,-0.00511100,-0.00
 866835,0.,0.00824367,-0.00121521,0.,0.02932931,0.02941526,0.,-0.126127
 98,0.03121977,0.,0.74940886,0.,0.02549120,0.00008279,0.,-0.01004281,0.
 01730456,0.,-0.00866835,-0.01654339,0.,0.01845733,-0.00208868,0.,0.070
 82786,-0.03218190,0.,-0.03121977,-0.28731530,0.,-0.01374287,0.64696079
 ,0.00386570,0.,0.,0.00610070,0.,0.,-0.00088739,0.,0.,0.00514454,0.,0.,
 -0.00335283,0.,0.,0.00811319,0.,0.,-0.06256862,0.,0.,0.13615757,0.,-0.
 06875507,0.00968507,0.,0.01277205,-0.02549120,0.,0.00824367,0.01845733
 ,0.,-0.01487771,-0.00097285,0.,-0.05515367,0.00331419,0.,0.02932931,-0
 .07082786,0.,-0.31672090,-0.07906163,0.,0.66884005,0.,-0.00968507,0.01
 602300,0.,-0.00610914,0.00008279,0.,-0.00121521,-0.00208868,0.,-0.0009
 7285,-0.00562615,0.,-0.00331419,-0.00038771,0.,-0.02941526,-0.03218190
 ,0.,-0.13710079,-0.19186218,0.,0.04794137,0.73060424,-0.06680436,0.,0.
 ,0.00701446,0.,0.,-0.00647040,0.,0.,0.00595479,0.,0.,0.00595479,0.,0.,
 -0.00647040,0.,0.,0.00701446,0.,0.,-0.06680436,0.,0.,0.16230611,0.,-0.
 22124144,-0.09310761,0.,-0.06373712,0.03033262,0.,-0.01701932,-0.03581
 199,0.,0.03462908,0.03046941,0.,0.03462908,-0.03046941,0.,-0.01701932,
 0.03581199,0.,-0.06373712,-0.03033262,0.,-0.22124144,0.09310761,0.,0.6
 8493214,0.,-0.06470462,-0.16825968,0.,-0.00446838,0.04115271,0.,-0.015
 94484,-0.02621401,0.,0.04418896,-0.02161702,0.,-0.04418896,-0.02161702
 ,0.,0.01594484,-0.02621400,0.,0.00446838,0.04115271,0.,0.06470462,-0.1
 6825968,0.,0.,0.62664537,0.00595479,0.,0.,-0.00647040,0.,0.,0.00701446
 ,0.,0.,-0.06680436,0.,0.,-0.06680436,0.,0.,0.00701446,0.,0.,-0.0064704
 0,0.,0.,0.00595479,0.,0.,-0.07518769,0.,0.,0.16230611,0.,0.03462908,-0
 .03046941,0.,-0.01701932,0.03581199,0.,-0.06373712,-0.03033262,0.,-0.2
 2124144,0.09310761,0.,-0.22124144,-0.09310761,0.,-0.06373712,0.0303326
 2,0.,-0.01701932,-0.03581199,0.,0.03462908,0.03046941,0.,-0.14309583,0
 .,0.,0.68493214,0.,-0.04418896,-0.02161702,0.,0.01594484,-0.02621401,0
 .,0.00446838,0.04115271,0.,0.06470462,-0.16825968,0.,-0.06470462,-0.16
 825968,0.,-0.00446838,0.04115271,0.,-0.01594484,-0.02621400,0.,0.04418
 896,-0.02161702,0.,0.,-0.24867817,0.,0.,0.62664537,-0.03662875,0.,0.,0
 .00435616,0.,0.,0.00833110,0.,0.,-0.00100951,0.,0.,0.00006545,0.,0.,-0
 .00011343,0.,0.,-0.00013607,0.,0.,-0.00302491,0.,0.,0.00334161,0.,0.,0
 .00526669,0.,0.,0.02491454,0.,-0.05919998,-0.00110427,0.,0.00437691,0.
 02918107,0.,-0.00445646,0.00200339,0.,-0.00103444,0.00001395,0.,0.0003
 4745,-0.00137765,0.,0.00017055,-0.00020515,0.,0.00016029,0.00048630,0.
 ,0.00148753,-0.00144753,0.,0.00356846,-0.02762384,0.,-0.00460208,-0.00
 155989,0.,0.05861973,0.,-0.00066767,-0.33238393,0.,-0.00224608,-0.0123
 3552,0.,0.00324459,0.00085152,0.,-0.00017026,0.00058563,0.,0.00074717,
 -0.00073401,0.,-0.00009138,0.00029665,0.,-0.00040939,0.00000808,0.,0.0
 0182438,0.00089565,0.,0.00171108,-0.01321392,0.,-0.00290306,0.00089329
 ,0.,0.00005125,0.35455828,0.00403841,0.,0.,-0.03742759,0.,0.,0.0029038
 2,0.,0.,0.00545207,0.,0.,-0.00084355,0.,0.,0.00010856,0.,0.,-0.0006142
 5,0.,0.,0.00022750,0.,0.,0.00895146,0.,0.,-0.00081345,0.,0.,-0.0050971
 7,0.,0.,0.02560886,0.,-0.02005131,-0.01591357,0.,-0.26795752,-0.118496
 29,0.,0.00371349,0.00210549,0.,0.00160386,0.00046006,0.,0.00023383,-0.
 00007436,0.,-0.00002414,0.00022073,0.,-0.00049293,0.00020883,0.,-0.000
 45234,-0.00120223,0.,-0.00253721,0.00417989,0.,0.00002148,0.00060533,0
 .,0.00107457,0.00026978,0.,0.28431179,0.,0.01548688,0.01193412,0.,-0.1
 1909049,-0.12732471,0.,-0.02901754,-0.01066609,0.,0.00141066,-0.005694
 34,0.,-0.00041560,0.00008965,0.,0.00013057,-0.00027659,0.,0.00030165,0
 .00015125,0.,0.00014800,0.00062051,0.,0.00329984,-0.00127818,0.,0.0010
 3640,-0.00044680,0.,-0.00049842,0.00092350,0.,0.12799807,0.13142753,0.
 00545207,0.,0.,0.00290382,0.,0.,-0.03742759,0.,0.,0.00403841,0.,0.,0.0
 0022750,0.,0.,-0.00061425,0.,0.,0.00010856,0.,0.,-0.00084355,0.,0.,-0.
 00081345,0.,0.,0.00895146,0.,0.,0.00015945,0.,0.,-0.00290222,0.,0.,0.0
 2560886,0.,0.00160386,-0.00046006,0.,0.00371349,-0.00210549,0.,-0.2679
 5752,0.11849629,0.,-0.02005131,0.01591357,0.,-0.00045234,0.00120223,0.
 ,-0.00049293,-0.00020883,0.,-0.00002414,-0.00022073,0.,0.00023383,0.00
 007436,0.,0.00002148,-0.00060533,0.,-0.00253721,-0.00417989,0.,0.00002
 582,-0.00018782,0.,0.00070382,0.00048545,0.,0.28431179,0.,-0.00141066,
 -0.00569434,0.,0.02901754,-0.01066609,0.,0.11909049,-0.12732471,0.,-0.
 01548688,0.01193412,0.,-0.00014800,0.00062051,0.,-0.00030165,0.0001512
 5,0.,-0.00013057,-0.00027659,0.,0.00041560,0.00008965,0.,-0.00103640,-
 0.00044680,0.,-0.00329984,-0.00127818,0.,0.00138592,-0.00068343,0.,-0.
 00048545,0.00114641,0.,-0.12799807,0.13142753,-0.00100951,0.,0.,0.0083
 3110,0.,0.,0.00435616,0.,0.,-0.03662875,0.,0.,-0.00302491,0.,0.,-0.000
 13607,0.,0.,-0.00011343,0.,0.,0.00006545,0.,0.,0.00526669,0.,0.,0.0033
 4161,0.,0.,-0.00108271,0.,0.,0.00015945,0.,0.,-0.00509717,0.,0.,0.0249
 1454,0.,-0.00103444,-0.00001395,0.,-0.00445646,-0.00200339,0.,0.004376
 91,-0.02918107,0.,-0.05919998,0.00110427,0.,0.00148753,0.00144753,0.,0
 .00016029,-0.00048630,0.,0.00017055,0.00020515,0.,0.00034745,0.0013776
 5,0.,-0.00460208,0.00155989,0.,0.00356846,0.02762384,0.,0.00013459,0.0
 0000357,0.,0.00002582,-0.00138592,0.,0.00107457,0.00049842,0.,0.058619
 73,0.,0.00017026,0.00058563,0.,-0.00324459,0.00085152,0.,0.00224608,-0
 .01233552,0.,0.00066767,-0.33238393,0.,-0.00182438,0.00089565,0.,0.000
 40939,0.00000808,0.,0.00009138,0.00029665,0.,-0.00074717,-0.00073401,0
 .,0.00290306,0.00089329,0.,-0.00171108,-0.01321392,0.,-0.00000357,-0.0
 0011191,0.,0.00018782,-0.00068343,0.,-0.00026978,0.00092350,0.,-0.0000
 5125,0.35455828,0.00006545,0.,0.,-0.00011343,0.,0.,-0.00013607,0.,0.,-
 0.00302491,0.,0.,-0.03662875,0.,0.,0.00435616,0.,0.,0.00833110,0.,0.,-
 0.00100951,0.,0.,0.00526669,0.,0.,0.00334161,0.,0.,0.00020032,0.,0.,0.
 00004255,0.,0.,0.00016353,0.,0.,0.00025115,0.,0.,0.02491454,0.,0.00034
 745,-0.00137765,0.,0.00017055,-0.00020515,0.,0.00016029,0.00048630,0.,
 0.00148753,-0.00144753,0.,-0.05919998,-0.00110427,0.,0.00437691,0.0291
 8107,0.,-0.00445646,0.00200339,0.,-0.00103444,0.00001395,0.,-0.0046020
 8,-0.00155989,0.,0.00356845,-0.02762384,0.,-0.00038438,-0.00022562,0.,
 -0.00001839,0.00006439,0.,-0.00000682,0.00000908,0.,-0.00026336,0.0008
 5060,0.,0.05861973,0.,0.00074717,-0.00073401,0.,-0.00009138,0.00029665
 ,0.,-0.00040939,0.00000808,0.,0.00182438,0.00089565,0.,-0.00066767,-0.
 33238393,0.,-0.00224608,-0.01233552,0.,0.00324459,0.00085152,0.,-0.000
 17026,0.00058563,0.,-0.00290305,0.00089329,0.,0.00171108,-0.01321392,0
 .,-0.00022562,-0.00013574,0.,-0.00003971,0.00004675,0.,-0.00006022,-0.
 00001851,0.,-0.00085060,0.00055762,0.,0.00005125,0.35455828,-0.0008435
 5,0.,0.,0.00010856,0.,0.,-0.00061425,0.,0.,0.00022750,0.,0.,0.00403841
 ,0.,0.,-0.03742759,0.,0.,0.00290382,0.,0.,0.00545207,0.,0.,-0.00081345
 ,0.,0.,0.00895146,0.,0.,0.00004255,0.,0.,0.00008423,0.,0.,-0.00004220,
 0.,0.,0.00016353,0.,0.,-0.00509717,0.,0.,0.02560886,0.,0.00023383,-0.0
 0007436,0.,-0.00002414,0.00022073,0.,-0.00049293,0.00020883,0.,-0.0004
 5234,-0.00120223,0.,-0.02005131,-0.01591357,0.,-0.26795752,-0.11849629
 ,0.,0.00371349,0.00210549,0.,0.00160386,0.00046006,0.,0.00002148,0.000
 60533,0.,-0.00253721,0.00417990,0.,-0.00001839,-0.00003971,0.,-0.00002
 072,-0.00001474,0.,-0.00012730,-0.00006988,0.,-0.00000682,0.00006022,0
 .,0.00107457,0.00026978,0.,0.28431179,0.,-0.00041560,0.00008965,0.,0.0
 0013057,-0.00027659,0.,0.00030165,0.00015125,0.,0.00014800,0.00062051,
 0.,0.01548688,0.01193412,0.,-0.11909049,-0.12732471,0.,-0.02901754,-0.
 01066609,0.,0.00141066,-0.00569434,0.,0.00103640,-0.00044680,0.,0.0032
 9984,-0.00127818,0.,0.00006439,0.00004675,0.,-0.00001474,0.00000243,0.
 ,0.00006988,0.00004649,0.,-0.00000908,-0.00001851,0.,-0.00049842,0.000
 92350,0.,0.12799807,0.13142753,0.00022750,0.,0.,-0.00061425,0.,0.,0.00
 010856,0.,0.,-0.00084355,0.,0.,0.00545207,0.,0.,0.00290382,0.,0.,-0.03
 742759,0.,0.,0.00403841,0.,0.,0.00895146,0.,0.,-0.00081345,0.,0.,0.000
 16353,0.,0.,-0.00004220,0.,0.,0.00008423,0.,0.,0.00004255,0.,0.,0.0001
 5945,0.,0.,-0.00290222,0.,0.,0.02560886,0.,-0.00045234,0.00120223,0.,-
 0.00049293,-0.00020883,0.,-0.00002414,-0.00022073,0.,0.00023383,0.0000
 7436,0.,0.00160386,-0.00046006,0.,0.00371349,-0.00210549,0.,-0.2679575
 2,0.11849629,0.,-0.02005131,0.01591357,0.,-0.00253721,-0.00417990,0.,0
 .00002148,-0.00060533,0.,-0.00000682,-0.00006022,0.,-0.00012730,0.0000
 6988,0.,-0.00002072,0.00001474,0.,-0.00001839,0.00003971,0.,0.00002582
 ,-0.00018782,0.,0.00070382,0.00048545,0.,0.28431179,0.,-0.00014800,0.0
 0062051,0.,-0.00030165,0.00015125,0.,-0.00013057,-0.00027659,0.,0.0004
 1560,0.00008965,0.,-0.00141066,-0.00569434,0.,0.02901754,-0.01066609,0
 .,0.11909049,-0.12732471,0.,-0.01548688,0.01193412,0.,-0.00329984,-0.0
 0127818,0.,-0.00103640,-0.00044680,0.,0.00000908,-0.00001851,0.,-0.000
 06988,0.00004649,0.,0.00001474,0.00000243,0.,-0.00006439,0.00004675,0.
 ,0.00138592,-0.00068343,0.,-0.00048545,0.00114641,0.,-0.12799807,0.131
 42753,-0.00302491,0.,0.,-0.00013607,0.,0.,-0.00011343,0.,0.,0.00006545
 ,0.,0.,-0.00100951,0.,0.,0.00833110,0.,0.,0.00435616,0.,0.,-0.03662875
 ,0.,0.,0.00334161,0.,0.,0.00526669,0.,0.,0.00025115,0.,0.,0.00016353,0
 .,0.,0.00004255,0.,0.,0.00020032,0.,0.,-0.00108271,0.,0.,0.00015945,0.
 ,0.,-0.00509717,0.,0.,0.02491454,0.,0.00148753,0.00144753,0.,0.0001602
 9,-0.00048630,0.,0.00017055,0.00020515,0.,0.00034745,0.00137765,0.,-0.
 00103444,-0.00001395,0.,-0.00445646,-0.00200339,0.,0.00437691,-0.02918
 107,0.,-0.05919998,0.00110427,0.,0.00356845,0.02762384,0.,-0.00460208,
 0.00155989,0.,-0.00026336,-0.00085060,0.,-0.00000682,-0.00000908,0.,-0
 .00001839,-0.00006439,0.,-0.00038438,0.00022562,0.,0.00013459,0.000003
 57,0.,0.00002582,-0.00138592,0.,0.00107457,0.00049842,0.,0.05861973,0.
 ,-0.00182438,0.00089565,0.,0.00040939,0.00000808,0.,0.00009138,0.00029
 665,0.,-0.00074717,-0.00073401,0.,0.00017026,0.00058563,0.,-0.00324459
 ,0.00085152,0.,0.00224608,-0.01233552,0.,0.00066767,-0.33238393,0.,-0.
 00171108,-0.01321392,0.,0.00290305,0.00089329,0.,0.00085060,0.00055762
 ,0.,0.00006022,-0.00001851,0.,0.00003971,0.00004675,0.,0.00022562,-0.0
 0013574,0.,-0.00000357,-0.00011191,0.,0.00018782,-0.00068343,0.,-0.000
 26978,0.00092350,0.,-0.00005125,0.35455828\\0.,-0.00006044,-0.00021290
 ,0.,-0.00023510,-0.00006178,0.,-0.00023510,0.00006178,0.,-0.00006044,0
 .00021290,0.,0.00006044,0.00021290,0.,0.00023510,0.00006178,0.,0.00023
 510,-0.00006178,0.,0.00006044,-0.00021290,0.,0.,-0.00007963,0.,0.,0.00
 007963,0.,0.00001714,-0.00006772,0.,-0.00007245,-0.00003926,0.,-0.0000
 7245,0.00003926,0.,0.00001714,0.00006772,0.,-0.00001714,0.00006772,0.,
 0.00007245,0.00003926,0.,0.00007245,-0.00003926,0.,-0.00001714,-0.0000
 6772\\\@


 TIMES HAVE CHANGED. IN THE BIBLE WHEN AN ASS
 SPOKE IT WAS CONSIDERED A MIRACLE.
 Job cpu time:       0 days  1 hours 15 minutes 58.1 seconds.
 Elapsed time:       0 days  0 hours  6 minutes 19.9 seconds.
 File lengths (MBytes):  RWF=    120 Int=      0 D2E=      0 Chk=     15 Scr=      1
 Normal termination of Gaussian 16 at Thu Jun 16 15:22:20 2022.
