 Entering Gaussian System, Link 0=g16
 AtFile(1): pcseg2.gbs
            -H     0
            S   4   1.00
                  0.754732D+02           0.427821D-02
                  0.113575D+02           0.328672D-01
                  0.260081D+01           0.159578D+00
                  0.735503D+00           0.500000D+00
            S   1   1.00
                  0.231761D+00           1.0000000
            S   1   1.00
                  0.741675D-01           1.0000000
            P   1   1.00
                  0.160000D+01           1.0000000
            P   1   1.00
                  0.450000D+00           1.0000000
            D   1   1.00
                  0.125000D+01           1.0000000
            ****
            -C     0
            S   7   1.00
                  0.731999D+04           0.695369D-03
                  0.109818D+04           0.537138D-02
                  0.250014D+03           0.274734D-01
                  0.707586D+02           0.105078D+00
                  0.228595D+02           0.291262D+00
                  0.803936D+01           0.500000D+00
                  0.289309D+01           0.362224D+00
            S   2   1.00
                  0.521640D+01          -0.957844D-01
                  0.556124D+00           0.500000D+00
            S   1   1.00
                  0.228813D+00           1.0000000
            S   1   1.00
                  0.936338D-01           1.0000000
            P   4   1.00
                  0.339855D+02           0.818395D-02
                  0.772957D+01           0.586921D-01
                  0.224954D+01           0.222514D+00
                  0.767681D+00           0.500000D+00
            P   1   1.00
                  0.263283D+00           1.0000000
            P   1   1.00
                  0.848744D-01           1.0000000
            D   1   1.00
                  0.140000D+01           1.0000000
            D   1   1.00
                  0.450000D+00           1.0000000
            F   1   1.00
                  0.950000D+00           1.0000000
            ****
            -O     0
            S   7   1.00
                  0.135887D+05           0.665492D-03
                  0.203847D+04           0.514222D-02
                  0.464041D+03           0.263472D-01
                  0.131339D+03           0.101500D+00
                  0.425340D+02           0.285877D+00
                  0.150429D+02           0.500000D+00
                  0.546616D+01           0.368211D+00
            S   2   1.00
                  0.100915D+02          -0.100084D+00
                  0.110429D+01           0.500000D+00
            S   1   1.00
                  0.448082D+00           1.0000000
            S   1   1.00
                  0.175325D+00           1.0000000
            P   4   1.00
                  0.608220D+02           0.908253D-02
                  0.140332D+02           0.645878D-01
                  0.418244D+01           0.241502D+00
                  0.142490D+01           0.500000D+00
            P   1   1.00
                  0.478741D+00           1.0000000
            P   1   1.00
                  0.146257D+00           1.0000000
            D   1   1.00
                  0.220000D+01           1.0000000
            D   1   1.00
                  0.650000D+00           1.0000000
            F   1   1.00
                  0.110000D+01           1.0000000
            ****
            -N     0
            S   7   1.00
                  0.101643D+05           0.682757D-03
                  0.152481D+04           0.527488D-02
                  0.347119D+03           0.270037D-01
                  0.982389D+02           0.103673D+00
                  0.317799D+02           0.289575D+00
                  0.112240D+02           0.500000D+00
                  0.406611D+01           0.364621D+00
            S   2   1.00
                  0.747898D+01          -0.975681D-01
                  0.805040D+00           0.500000D+00
            S   1   1.00
                  0.324626D+00           1.0000000
            S   1   1.00
                  0.128132D+00           1.0000000
            P   4   1.00
                  0.482704D+02           0.829547D-02
                  0.110815D+02           0.596223D-01
                  0.326643D+01           0.227889D+00
                  0.111680D+01           0.500000D+00
            P   1   1.00
                  0.382049D+00           1.0000000
            P   1   1.00
                  0.121222D+00           1.0000000
            D   1   1.00
                  0.180000D+01           1.0000000
            D   1   1.00
                  0.550000D+00           1.0000000
            F   1   1.00
                  0.102000D+01           1.0000000
            ****
            -F     0
            S   7   1.00
                  0.174507D+05           0.655972D-03
                  0.261768D+04           0.506944D-02
                  0.595857D+03           0.259899D-01
                  0.168651D+03           0.100353D+00
                  0.546654D+02           0.284095D+00
                  0.193717D+02           0.500000D+00
                  0.706202D+01           0.370721D+00
            S   2   1.00
                  0.131197D+02          -0.101997D+00
                  0.145046D+01           0.500000D+00
            S   1   1.00
                  0.588255D+00           1.0000000
            S   1   1.00
                  0.227960D+00           1.0000000
            P   4   1.00
                  0.779407D+02           0.931135D-02
                  0.180425D+02           0.663964D-01
                  0.542342D+01           0.246386D+00
                  0.184876D+01           0.500000D+00
            P   1   1.00
                  0.617455D+00           1.0000000
            P   1   1.00
                  0.185496D+00           1.0000000
            D   1   1.00
                  0.280000D+01           1.0000000
            D   1   1.00
                  0.800000D+00           1.0000000
            F   1   1.00
                  0.120000D+01           1.0000000
            ****
            -Cl     0
            S   8   1.00
                  0.154272D+06           0.222473D-03
                  0.231232D+05           0.172590D-02
                  0.526257D+04           0.899286D-02
                  0.148995D+04           0.367724D-01
                  0.485417D+03           0.121446D+00
                  0.174634D+03           0.304148D+00
                  0.672393D+02           0.500000D+00
                  0.265780D+02           0.360252D+00
            S   3   1.00
                  0.131826D+03          -0.531330D-01
                  0.400703D+02          -0.233346D+00
                  0.789448D+01           0.500000D+00
            S   2   1.00
                  0.427711D+01           0.500000D+00
                  0.196233D+01           0.370517D+00
            S   1   1.00
                  0.520793D+00           1.0000000
            S   1   1.00
                  0.181633D+00           1.0000000
            P   7   1.00
                  0.124440D+04           0.988206D-03
                  0.295109D+03           0.829674D-02
                  0.947224D+02           0.430906D-01
                  0.352588D+02           0.148443D+00
                  0.144211D+02           0.344744D+00
                  0.610371D+01           0.500000D+00
                  0.258886D+01           0.348278D+00
            P   2   1.00
                  0.109447D+02          -0.196768D-01
                  0.104413D+01           0.500000D+00
            P   1   1.00
                  0.376184D+00           1.0000000
            P   1   1.00
                  0.120613D+00           1.0000000
            D   1   1.00
                  0.231000D+01           1.0000000
            D   1   1.00
                  0.520000D+00           1.0000000
            F   1   1.00
                  0.720000D+00           1.0000000
            ****
            -S     0
            S   8   1.00
                  0.134700D+06           0.226231D-03
                  0.201904D+05           0.175488D-02
                  0.459528D+04           0.914190D-02
                  0.130109D+04           0.373551D-01
                  0.423902D+03           0.123121D+00
                  0.152485D+03           0.306801D+00
                  0.586925D+02           0.500000D+00
                  0.231461D+02           0.354358D+00
            S   3   1.00
                  0.116327D+03          -0.491772D-01
                  0.352841D+02          -0.215962D+00
                  0.677831D+01           0.500000D+00
            S   2   1.00
                  0.360404D+01           0.500000D+00
                  0.164871D+01           0.366278D+00
            S   1   1.00
                  0.421821D+00           1.0000000
            S   1   1.00
                  0.147554D+00           1.0000000
            P   7   1.00
                  0.104863D+04           0.105273D-02
                  0.248717D+03           0.879338D-02
                  0.797887D+02           0.453358D-01
                  0.296023D+02           0.154476D+00
                  0.120627D+02           0.352366D+00
                  0.507628D+01           0.500000D+00
                  0.213375D+01           0.346429D+00
            P   2   1.00
                  0.928958D+01          -0.185932D-01
                  0.837819D+00           0.500000D+00
            P   1   1.00
                  0.301495D+00           1.0000000
            P   1   1.00
                  0.974740D-01           1.0000000
            D   1   1.00
                  0.210000D+01           1.0000000
            D   1   1.00
                  0.480000D+00           1.0000000
            F   1   1.00
                  0.660000D+00           1.0000000
            ****
            -Br     0
            S    10   1.00
                  0.233625D+07           0.532336D-04
                  0.349961D+06           0.413715D-03
                  0.796444D+05           0.217123D-02
                  0.225555D+05           0.910109D-02
                  0.735546D+04           0.323789D-01
                  0.265352D+04           0.988755D-01
                  0.103517D+04           0.248138D+00
                  0.422205D+03           0.474328D+00
                  0.180035D+03           0.500000D+00
                  0.793308D+02           0.187769D+00
            S    4   1.00
                  0.620834D+03          -0.226511D-01
                  0.190829D+03          -0.109497D+00
                  0.312505D+02           0.500000D+00
                  0.135270D+02           0.492812D+00
            S    2   1.00
                  0.216097D+02          -0.165418D+00
                  0.372566D+01           0.500000D+00
            S    1   1.00
                  0.169770D+01           1.0000000
            S    1   1.00
                  0.489332D+00           1.0000000
            S    1   1.00
                  0.175712D+00           1.0000000
            P    8   1.00
                  0.960829D+04           0.478974D-03
                  0.227618D+04           0.417853D-02
                  0.736723D+03           0.229315D-01
                  0.281579D+03           0.892653D-01
                  0.118395D+03           0.255288D+00
                  0.527481D+02           0.479074D+00
                  0.245098D+02           0.500000D+00
                  0.112009D+02           0.200944D+00
            P    4   1.00
                  0.587849D+02          -0.189674D-01
                  0.918962D+01           0.264104D+00
                  0.413895D+01           0.500000D+00
                  0.184225D+01           0.319316D+00
            P    1   1.00
                  0.713862D+00           1.0000000
            P    1   1.00
                  0.274232D+00           1.0000000
            P    1   1.00
                  0.944411D-01           1.0000000
            D    7   1.00
                  0.398470D+03           0.204066D-02
                  0.118967D+03           0.175171D-01
                  0.450197D+02           0.829708D-01
                  0.190320D+02           0.236284D+00
                  0.855686D+01           0.428468D+00
                  0.382950D+01           0.500000D+00
                  0.166291D+01           0.349360D+00
            D    1   1.00
                  0.672953D+00           1.0000000
            D    1   1.00
                  0.252000D+00           1.0000000
            F    1   1.00
                  0.530000D+00           1.0000000
            ****
            -Si     0
            S    8   1.00
                  0.996133D+05           0.235546D-03
                  0.149311D+05           0.182707D-02
                  0.339820D+04           0.951425D-02
                  0.962140D+03           0.388172D-01
                  0.313430D+03           0.127328D+00
                  0.112683D+03           0.313522D+00
                  0.433372D+02           0.500000D+00
                  0.170029D+02           0.340347D+00
            S    3   1.00
                  0.884208D+02          -0.404451D-01
                  0.266756D+02          -0.178059D+00
                  0.479640D+01           0.500000D+00
            S    2   1.00
                  0.239385D+01           0.500000D+00
                  0.108333D+01           0.338016D+00
            S    1   1.00
                  0.252420D+00           1.0000000
            S    1   1.00
                  0.891210D-01           1.0000000
            P    7   1.00
                  0.709901D+03           0.123028D-02
                  0.168426D+03           0.101366D-01
                  0.539946D+02           0.511840D-01
                  0.198646D+02           0.169967D+00
                  0.801369D+01           0.370717D+00
                  0.331870D+01           0.500000D+00
                  0.136112D+01           0.344128D+00
            P    2   1.00
                  0.622158D+01          -0.166609D-01
                  0.503049D+00           0.500000D+00
            P    1   1.00
                  0.179848D+00           1.0000000
            P    1   1.00
                  0.591912D-01           1.0000000
            D    1   1.00
                  0.168000D+01           1.0000000
            D    1   1.00
                  0.380000D+00           1.0000000
            F    1   1.00
                  0.540000D+00           1.0000000
            ****
            -P     0
            S    8   1.00
                  0.116416D+06           0.230715D-03
                  0.174500D+05           0.178960D-02
                  0.397149D+04           0.932116D-02
                  0.112447D+04           0.380591D-01
                  0.366347D+03           0.125148D+00
                  0.131757D+03           0.310022D+00
                  0.506988D+02           0.500000D+00
                  0.199436D+02           0.347528D+00
            S    3   1.00
                  0.101878D+03          -0.446755D-01
                  0.308249D+02          -0.196376D+00
                  0.573688D+01           0.500000D+00
            S    2   1.00
                  0.296868D+01           0.500000D+00
                  0.135315D+01           0.355098D+00
            S    1   1.00
                  0.332196D+00           1.0000000
            S    1   1.00
                  0.116229D+00           1.0000000
            P    7   1.00
                  0.873928D+03           0.112375D-02
                  0.207298D+03           0.933330D-02
                  0.664628D+02           0.477213D-01
                  0.245665D+02           0.160733D+00
                  0.996820D+01           0.359760D+00
                  0.416536D+01           0.500000D+00
                  0.173022D+01           0.346593D+00
            P    2   1.00
                  0.772530D+01          -0.175718D-01
                  0.657252D+00           0.500000D+00
            P    1   1.00
                  0.239903D+00           1.0000000
            P    1   1.00
                  0.800988D-01           1.0000000
            D    1   1.00
                  0.189000D+01           1.0000000
            D    1   1.00
                  0.430000D+00           1.0000000
            F    1   1.00
                  0.600000D+00           1.0000000
            ****
            
 Initial command:
 /usr/local/apps/g16_b01_avx/g16/l1.exe "/wrk/irikura/Gau-197423.inp" -scrdir="/wrk/irikura/"
 Entering Link 1 = /usr/local/apps/g16_b01_avx/g16/l1.exe PID=    197425.
  
 Copyright (c) 1988-2017, Gaussian, Inc.  All Rights Reserved.
  
 This is part of the Gaussian(R) 16 program.  It is based on
 the Gaussian(R) 09 system (copyright 2009, Gaussian, Inc.),
 the Gaussian(R) 03 system (copyright 2003, Gaussian, Inc.),
 the Gaussian(R) 98 system (copyright 1998, Gaussian, Inc.),
 the Gaussian(R) 94 system (copyright 1995, Gaussian, Inc.),
 the Gaussian 92(TM) system (copyright 1992, Gaussian, Inc.),
 the Gaussian 90(TM) system (copyright 1990, Gaussian, Inc.),
 the Gaussian 88(TM) system (copyright 1988, Gaussian, Inc.),
 the Gaussian 86(TM) system (copyright 1986, Carnegie Mellon
 University), and the Gaussian 82(TM) system (copyright 1983,
 Carnegie Mellon University). Gaussian is a federally registered
 trademark of Gaussian, Inc.
  
 This software contains proprietary and confidential information,
 including trade secrets, belonging to Gaussian, Inc.
  
 This software is provided under written license and may be
 used, copied, transmitted, or stored only in accord with that
 written license.
  
 The following legend is applicable only to US Government
 contracts under FAR:
  
                    RESTRICTED RIGHTS LEGEND
  
 Use, reproduction and disclosure by the US Government is
 subject to restrictions as set forth in subparagraphs (a)
 and (c) of the Commercial Computer Software - Restricted
 Rights clause in FAR 52.227-19.
  
 Gaussian, Inc.
 340 Quinnipiac St., Bldg. 40, Wallingford CT 06492
  
  
 ---------------------------------------------------------------
 Warning -- This program may not be used in any manner that
 competes with the business of Gaussian, Inc. or will provide
 assistance to any competitor of Gaussian, Inc.  The licensee
 of this program is prohibited from giving any competitor of
 Gaussian, Inc. access to this program.  By using this program,
 the user acknowledges that Gaussian, Inc. is engaged in the
 business of creating and licensing software in the field of
 computational chemistry and represents and warrants to the
 licensee that it is not a competitor of Gaussian, Inc. and that
 it will not use this program in any manner prohibited above.
 ---------------------------------------------------------------
  

 Cite this work as:
 Gaussian 16, Revision B.01,
 M. J. Frisch, G. W. Trucks, H. B. Schlegel, G. E. Scuseria, 
 M. A. Robb, J. R. Cheeseman, G. Scalmani, V. Barone, 
 G. A. Petersson, H. Nakatsuji, X. Li, M. Caricato, A. V. Marenich, 
 J. Bloino, B. G. Janesko, R. Gomperts, B. Mennucci, H. P. Hratchian, 
 J. V. Ortiz, A. F. Izmaylov, J. L. Sonnenberg, D. Williams-Young, 
 F. Ding, F. Lipparini, F. Egidi, J. Goings, B. Peng, A. Petrone, 
 T. Henderson, D. Ranasinghe, V. G. Zakrzewski, J. Gao, N. Rega, 
 G. Zheng, W. Liang, M. Hada, M. Ehara, K. Toyota, R. Fukuda, 
 J. Hasegawa, M. Ishida, T. Nakajima, Y. Honda, O. Kitao, H. Nakai, 
 T. Vreven, K. Throssell, J. A. Montgomery, Jr., J. E. Peralta, 
 F. Ogliaro, M. J. Bearpark, J. J. Heyd, E. N. Brothers, K. N. Kudin, 
 V. N. Staroverov, T. A. Keith, R. Kobayashi, J. Normand, 
 K. Raghavachari, A. P. Rendell, J. C. Burant, S. S. Iyengar, 
 J. Tomasi, M. Cossi, J. M. Millam, M. Klene, C. Adamo, R. Cammi, 
 J. W. Ochterski, R. L. Martin, K. Morokuma, O. Farkas, 
 J. B. Foresman, and D. J. Fox, Gaussian, Inc., Wallingford CT, 2016.
 
 ******************************************
 Gaussian 16:  ES64L-G16RevB.01 20-Dec-2017
                29-Sep-2023 
 ******************************************
 %chk=nco.chk
 %mem=500mw
 %nprocs=4
 Will use up to    4 processors via shared memory.
 ---------------------------------------
 # b3lyp/gen opt freq CPHF(Grid=OneStep)
 ---------------------------------------
 1/18=20,19=15,26=3,38=1/1,3;
 2/9=110,12=2,17=6,18=5,40=1/2;
 3/5=7,11=2,25=1,30=1,71=1,74=-5/1,2,3;
 4//1;
 5/5=2,38=5/2;
 6/7=2,8=2,9=2,10=2,28=1/1;
 7//1,2,3,16;
 1/18=20,19=15,26=3/3(2);
 2/9=110/2;
 99//99;
 2/9=110/2;
 3/5=7,6=1,11=2,25=1,30=1,71=1,74=-5,82=7/1,2,3;
 4/5=5,16=3,69=1/1;
 5/5=2,38=5/2;
 7//1,2,3,16;
 1/18=20,19=15,26=3/3(-5);
 2/9=110/2;
 6/7=2,8=2,9=2,10=2,19=2,28=1/1;
 99/9=1/99;
 ---------------------------------
 isocyanato radical, B3LYP/pcseg-2
 ---------------------------------
 Symbolic Z-matrix:
 Charge =  0 Multiplicity = 2
 N                     0.        0.       -1.26183 
 C                     0.        0.       -0.04062 
 O                     0.        0.        1.13456 
 

 GradGradGradGradGradGradGradGradGradGradGradGradGradGradGradGradGradGrad
 Berny optimization.
 Initialization pass.
                           ----------------------------
                           !    Initial Parameters    !
                           ! (Angstroms and Degrees)  !
 --------------------------                            --------------------------
 ! Name  Definition              Value          Derivative Info.                !
 --------------------------------------------------------------------------------
 ! R1    R(1,2)                  1.2212         estimate D2E/DX2                !
 ! R2    R(2,3)                  1.1752         estimate D2E/DX2                !
 ! A1    L(1,2,3,-1,-1)        180.0            estimate D2E/DX2                !
 ! A2    L(1,2,3,-2,-2)        180.0            estimate D2E/DX2                !
 --------------------------------------------------------------------------------
 Trust Radius=3.00D-01 FncErr=1.00D-07 GrdErr=1.00D-06 EigMax=2.50D+02 EigMin=1.00D-04
 Number of steps in this run=     20 maximum allowed number of steps=    100.
 GradGradGradGradGradGradGradGradGradGradGradGradGradGradGradGradGradGrad

                          Input orientation:                          
 ---------------------------------------------------------------------
 Center     Atomic      Atomic             Coordinates (Angstroms)
 Number     Number       Type             X           Y           Z
 ---------------------------------------------------------------------
      1          7           0        0.000000    0.000000   -1.261832
      2          6           0        0.000000    0.000000   -0.040615
      3          8           0        0.000000    0.000000    1.134564
 ---------------------------------------------------------------------
                    Distance matrix (angstroms):
                    1          2          3
     1  N    0.000000
     2  C    1.221217   0.000000
     3  O    2.396396   1.175179   0.000000
 Stoichiometry    CNO(2)
 Framework group  C*V[C*(NCO)]
 Deg. of freedom     2
 Full point group                 C*V     NOp   4
 Largest Abelian subgroup         C2V     NOp   4
 Largest concise Abelian subgroup C1      NOp   1
                         Standard orientation:                         
 ---------------------------------------------------------------------
 Center     Atomic      Atomic             Coordinates (Angstroms)
 Number     Number       Type             X           Y           Z
 ---------------------------------------------------------------------
      1          7           0        0.000000    0.000000   -1.261832
      2          6           0        0.000000    0.000000   -0.040615
      3          8           0        0.000000    0.000000    1.134564
 ---------------------------------------------------------------------
 Rotational constants (GHZ):           0.0000000          11.7790268          11.7790268
 General basis read from cards:  (5D, 7F)
 There are    48 symmetry adapted cartesian basis functions of A1  symmetry.
 There are     9 symmetry adapted cartesian basis functions of A2  symmetry.
 There are    24 symmetry adapted cartesian basis functions of B1  symmetry.
 There are    24 symmetry adapted cartesian basis functions of B2  symmetry.
 There are    39 symmetry adapted basis functions of A1  symmetry.
 There are     9 symmetry adapted basis functions of A2  symmetry.
 There are    21 symmetry adapted basis functions of B1  symmetry.
 There are    21 symmetry adapted basis functions of B2  symmetry.
    90 basis functions,   153 primitive gaussians,   105 cartesian basis functions
    11 alpha electrons       10 beta electrons
       nuclear repulsion energy        52.1796186770 Hartrees.
 NAtoms=    3 NActive=    3 NUniq=    3 SFac= 1.00D+00 NAtFMM=   60 NAOKFM=F Big=F
 Integral buffers will be    131072 words long.
 Raffenetti 2 integral format.
 Two-electron integral symmetry is turned on.
 One-electron integrals computed using PRISM.
 NBasis=    90 RedAO= T EigKep=  9.58D-04  NBF=    39     9    21    21
 NBsUse=    90 1.00D-06 EigRej= -1.00D+00 NBFU=    39     9    21    21
 ExpMin= 8.49D-02 ExpMax= 1.36D+04 ExpMxC= 4.64D+02 IAcc=3 IRadAn=         5 AccDes= 0.00D+00
 Harris functional with IExCor=  402 and IRadAn=       5 diagonalized for initial guess.
 HarFok:  IExCor=  402 AccDes= 0.00D+00 IRadAn=         5 IDoV= 1 UseB2=F ITyADJ=14
 ICtDFT=  3500011 ScaDFX=  1.000000  1.000000  1.000000  1.000000
 FoFCou: FMM=F IPFlag=           0 FMFlag=      100000 FMFlg1=           0
         NFxFlg=           0 DoJE=T BraDBF=F KetDBF=T FulRan=T
         wScrn=  0.000000 ICntrl=       500 IOpCl=  0 I1Cent=   200000004 NGrid=           0
         NMat0=    1 NMatS0=      1 NMatT0=    0 NMatD0=    1 NMtDS0=    0 NMtDT0=    0
 Petite list used in FoFCou.
 Initial guess orbital symmetries:
 Alpha Orbitals:
       Occupied  (SG) (SG) (SG) (SG) (SG) (SG) (PI) (PI) (SG) (PI)
                 (PI)
       Virtual   (PI) (PI) (SG) (SG) (PI) (PI) (SG) (SG) (PI) (PI)
                 (SG) (PI) (PI) (SG) (SG) (SG) (DLTA) (DLTA) (PI)
                 (PI) (PI) (PI) (SG) (DLTA) (DLTA) (SG) (DLTA)
                 (DLTA) (PI) (PI) (SG) (PI) (PI) (SG) (PI) (PI)
                 (SG) (PI) (PI) (SG) (SG) (DLTA) (DLTA) (PHI) (PHI)
                 (SG) (PI) (PI) (PHI) (PHI) (DLTA) (DLTA) (PI)
                 (PI) (SG) (PHI) (PHI) (DLTA) (DLTA) (SG) (SG)
                 (DLTA) (DLTA) (DLTA) (DLTA) (PI) (PI) (SG) (PI)
                 (PI) (PI) (PI) (DLTA) (DLTA) (SG) (PI) (PI) (SG)
                 (SG)
 Beta  Orbitals:
       Occupied  (SG) (SG) (SG) (SG) (SG) (SG) (PI) (PI) (SG) (PI)
       Virtual   (PI) (PI) (PI) (SG) (SG) (PI) (PI) (SG) (SG) (PI)
                 (PI) (SG) (PI) (PI) (SG) (SG) (SG) (DLTA) (DLTA)
                 (PI) (PI) (PI) (PI) (SG) (DLTA) (DLTA) (SG) (DLTA)
                 (DLTA) (PI) (PI) (SG) (PI) (PI) (SG) (PI) (PI)
                 (SG) (PI) (PI) (SG) (SG) (DLTA) (DLTA) (PHI) (PHI)
                 (SG) (PI) (PI) (PHI) (PHI) (DLTA) (DLTA) (PI)
                 (PI) (SG) (PHI) (PHI) (DLTA) (DLTA) (SG) (SG)
                 (DLTA) (DLTA) (DLTA) (DLTA) (PI) (PI) (SG) (PI)
                 (PI) (PI) (PI) (DLTA) (DLTA) (SG) (PI) (PI) (SG)
                 (SG)
 Initial guess <Sx>= 0.0000 <Sy>= 0.0000 <Sz>= 0.5000 <S**2>= 0.7500 S= 0.5000
 Keep R1 and R2 ints in memory in symmetry-blocked form, NReq=12121568.
 Requested convergence on RMS density matrix=1.00D-08 within 128 cycles.
 Requested convergence on MAX density matrix=1.00D-06.
 Requested convergence on             energy=1.00D-06.
 No special actions if energy rises.
 Integral accuracy reduced to 1.0D-05 until final iterations.
 Initial convergence to 1.0D-05 achieved.  Increase integral accuracy.
 SCF Done:  E(UB3LYP) =  -168.072841976     A.U. after   15 cycles
            NFock= 15  Conv=0.70D-08     -V/T= 2.0028
 <Sx>= 0.0000 <Sy>= 0.0000 <Sz>= 0.5000 <S**2>= 0.7623 S= 0.5061
 <L.S>=  0.00000000000    
 Annihilation of the first spin contaminant:
 S**2 before annihilation     0.7623,   after     0.7501

 **********************************************************************

            Population analysis using the SCF Density.

 **********************************************************************

 Orbital symmetries:
 Alpha Orbitals:
       Occupied  (SG) (SG) (SG) (SG) (SG) (SG) (PI) (PI) (SG) (PI)
                 (PI)
       Virtual   (PI) (SG) (PI) (SG) (PI) (PI) (SG) (SG) (PI) (PI)
                 (SG) (PI) (PI) (SG) (SG) (DLTA) (DLTA) (SG) (PI)
                 (PI) (PI) (PI) (?A) (?A) (?A) (?B) (?B) (?B) (PI)
                 (PI) (SG) (PI) (PI) (SG) (PI) (PI) (SG) (PI) (PI)
                 (SG) (SG) (DLTA) (DLTA) (PHI) (PHI) (SG) (?C)
                 (?C) (?C) (?C) (?D) (?D) (PI) (PI) (?D) (PHI)
                 (PHI) (?D) (?D) (SG) (SG) (?E) (?E) (?E) (?E)
                 (PI) (PI) (?E) (PI) (PI) (PI) (PI) (DLTA) (DLTA)
                 (SG) (PI) (PI) (SG) (SG)
 Beta  Orbitals:
       Occupied  (SG) (SG) (SG) (SG) (SG) (SG) (PI) (PI) (SG) (PI)
       Virtual   (PI) (SG) (PI) (PI) (SG) (PI) (PI) (SG) (SG) (PI)
                 (PI) (SG) (PI) (PI) (SG) (SG) (DLTA) (DLTA) (SG)
                 (PI) (PI) (PI) (PI) (SG) (DLTA) (DLTA) (SG) (DLTA)
                 (DLTA) (PI) (SG) (PI) (PI) (PI) (SG) (PI) (PI)
                 (SG) (PI) (PI) (SG) (SG) (DLTA) (DLTA) (PHI) (PHI)
                 (SG) (PI) (PI) (PHI) (PHI) (DLTA) (DLTA) (PI)
                 (PI) (SG) (PHI) (PHI) (DLTA) (DLTA) (SG) (SG)
                 (DLTA) (DLTA) (PI) (PI) (?A) (?A) (?A) (PI) (PI)
                 (PI) (PI) (DLTA) (DLTA) (SG) (PI) (PI) (SG) (SG)
 Unable to determine electronic state:  partially filled degenerate orbitals.
 Alpha  occ. eigenvalues --  -19.24678 -14.39928 -10.33598  -1.17104  -0.97502
 Alpha  occ. eigenvalues --   -0.57723  -0.53061  -0.50827  -0.44827  -0.37950
 Alpha  occ. eigenvalues --   -0.34213
 Alpha virt. eigenvalues --    0.00742   0.01910   0.02797   0.12638   0.13993
 Alpha virt. eigenvalues --    0.14511   0.25916   0.28558   0.31240   0.32465
 Alpha virt. eigenvalues --    0.33895   0.45056   0.45943   0.58139   0.70858
 Alpha virt. eigenvalues --    0.78545   0.78555   0.86073   1.04412   1.06519
 Alpha virt. eigenvalues --    1.14213   1.14910   1.21028   1.22076   1.22306
 Alpha virt. eigenvalues --    1.42106   1.56217   1.56232   1.65221   1.67546
 Alpha virt. eigenvalues --    1.67799   1.85739   1.88430   2.06300   2.15121
 Alpha virt. eigenvalues --    2.17441   2.32512   2.68455   2.70580   2.71521
 Alpha virt. eigenvalues --    2.96470   3.07900   3.07900   3.14463   3.14464
 Alpha virt. eigenvalues --    3.37875   3.59467   3.61112   3.63762   3.63776
 Alpha virt. eigenvalues --    3.80062   3.80073   3.81717   3.83496   3.92079
 Alpha virt. eigenvalues --    3.97159   3.97161   4.01397   4.01441   4.13414
 Alpha virt. eigenvalues --    4.56793   4.85954   4.85957   4.98106   4.98124
 Alpha virt. eigenvalues --    4.99830   5.01986   5.15856   5.19076   5.21337
 Alpha virt. eigenvalues --    5.87040   5.89336   5.96209   5.96221   6.26578
 Alpha virt. eigenvalues --    6.59040   6.61205   7.23114   8.03412
  Beta  occ. eigenvalues --  -19.23680 -14.38482 -10.33763  -1.15369  -0.93735
  Beta  occ. eigenvalues --   -0.56499  -0.50336  -0.48217  -0.42704  -0.32759
  Beta virt. eigenvalues --   -0.23176   0.02248   0.03214   0.05309   0.12930
  Beta virt. eigenvalues --    0.14185   0.14455   0.26164   0.29215   0.32838
  Beta virt. eigenvalues --    0.33645   0.34091   0.46156   0.46588   0.59054
  Beta virt. eigenvalues --    0.71438   0.79172   0.79239   0.87477   1.06772
  Beta virt. eigenvalues --    1.07014   1.14016   1.14600   1.21986   1.25084
  Beta virt. eigenvalues --    1.25306   1.42682   1.58007   1.58101   1.68063
  Beta virt. eigenvalues --    1.68323   1.68758   1.89318   1.90589   2.06877
  Beta virt. eigenvalues --    2.18138   2.19065   2.34088   2.70982   2.71139
  Beta virt. eigenvalues --    2.72065   2.97487   3.09121   3.09198   3.14767
  Beta virt. eigenvalues --    3.14778   3.39576   3.61043   3.61128   3.67671
  Beta virt. eigenvalues --    3.67753   3.80429   3.80482   3.83557   3.83657
  Beta virt. eigenvalues --    3.92418   3.99063   3.99073   4.02712   4.02818
  Beta virt. eigenvalues --    4.14633   4.58239   4.88111   4.88280   5.02236
  Beta virt. eigenvalues --    5.02320   5.03158   5.03642   5.17906   5.21678
  Beta virt. eigenvalues --    5.22112   5.89728   5.90193   5.99600   5.99758
  Beta virt. eigenvalues --    6.27898   6.61663   6.62121   7.23893   8.04180
          Condensed to atoms (all electrons):
               1          2          3
     1  N    6.651100   0.613266  -0.042675
     2  C    0.613266   4.399949   0.533284
     3  O   -0.042675   0.533284   7.741200
          Atomic-Atomic Spin Densities.
               1          2          3
     1  N    0.669604   0.051503  -0.014647
     2  C    0.051503  -0.061864  -0.048787
     3  O   -0.014647  -0.048787   0.416122
 Mulliken charges and spin densities:
               1          2
     1  N   -0.221691   0.706460
     2  C    0.453500  -0.059148
     3  O   -0.231810   0.352688
 Sum of Mulliken charges =  -0.00000   1.00000
 Mulliken charges and spin densities with hydrogens summed into heavy atoms:
               1          2
     1  N   -0.221691   0.706460
     2  C    0.453500  -0.059148
     3  O   -0.231810   0.352688
 Electronic spatial extent (au):  <R**2>=            114.7024
 Charge=             -0.0000 electrons
 Dipole moment (field-independent basis, Debye):
    X=              0.0000    Y=              0.0000    Z=              0.7269  Tot=              0.7269
 Quadrupole moment (field-independent basis, Debye-Ang):
   XX=            -16.0460   YY=            -14.7005   ZZ=            -20.4874
   XY=              0.0000   XZ=              0.0000   YZ=              0.0000
 Traceless Quadrupole moment (field-independent basis, Debye-Ang):
   XX=              1.0320   YY=              2.3774   ZZ=             -3.4094
   XY=              0.0000   XZ=              0.0000   YZ=              0.0000
 Octapole moment (field-independent basis, Debye-Ang**2):
  XXX=              0.0000  YYY=              0.0000  ZZZ=              8.3220  XYY=              0.0000
  XXY=              0.0000  XXZ=              2.1689  XZZ=              0.0000  YZZ=              0.0000
  YYZ=              1.3637  XYZ=              0.0000
 Hexadecapole moment (field-independent basis, Debye-Ang**3):
 XXXX=            -14.9463 YYYY=            -12.7031 ZZZZ=           -123.0783 XXXY=              0.0000
 XXXZ=              0.0000 YYYX=              0.0000 YYYZ=              0.0000 ZZZX=              0.0000
 ZZZY=              0.0000 XXYY=             -4.6080 XXZZ=            -22.5121 YYZZ=            -20.2760
 XXYZ=              0.0000 YYXZ=              0.0000 ZZXY=              0.0000
 N-N= 5.217961867695D+01 E-N=-4.987282633707D+02  KE= 1.675976053695D+02
 Symmetry A1   KE= 1.542209327017D+02
 Symmetry A2   KE= 2.533911095184D-35
 Symmetry B1   KE= 7.685380103668D+00
 Symmetry B2   KE= 5.691292564180D+00
 Symmetry A1   SP=-1.059274162254D-14
 Symmetry A2   SP= 5.060093755673D-36
 Symmetry B1   SP=-3.380345862166D-15
 Symmetry B2   SP= 1.000000000000D+00
                          Isotropic Fermi Contact Couplings
        Atom                 a.u.       MegaHertz       Gauss      10(-4) cm-1
     1  N(14)              0.11844      38.26754      13.65481      12.76468
     2  C(13)             -0.04029     -45.29009     -16.16063     -15.10715
     3  O(17)              0.08600     -52.13447     -18.60288     -17.39019
 --------------------------------------------------------
       Center         ----  Spin Dipole Couplings  ----
                      3XX-RR        3YY-RR        3ZZ-RR
 --------------------------------------------------------
     1   Atom       -0.769803      1.619437     -0.849634
     2   Atom       -0.087227     -0.053030      0.140257
     3   Atom       -0.789043      1.559533     -0.770490
 --------------------------------------------------------
                        XY            XZ            YZ
 --------------------------------------------------------
     1   Atom        0.000000      0.000000      0.000000
     2   Atom        0.000000      0.000000      0.000000
     3   Atom        0.000000      0.000000      0.000000
 --------------------------------------------------------


 ---------------------------------------------------------------------------------
              Anisotropic Spin Dipole Couplings in Principal Axis System
 ---------------------------------------------------------------------------------

       Atom             a.u.   MegaHertz   Gauss  10(-4) cm-1        Axes

              Baa    -0.8496   -32.768   -11.693   -10.930  0.0000  0.0000  1.0000
     1 N(14)  Bbb    -0.7698   -29.690   -10.594    -9.903  1.0000  0.0000  0.0000
              Bcc     1.6194    62.458    22.287    20.834 -0.0000  1.0000  0.0000
 
              Baa    -0.0872   -11.705    -4.177    -3.904  1.0000  0.0000  0.0000
     2 C(13)  Bbb    -0.0530    -7.116    -2.539    -2.374 -0.0000  1.0000  0.0000
              Bcc     0.1403    18.821     6.716     6.278  0.0000  0.0000  1.0000
 
              Baa    -0.7890    57.095    20.373    19.045  1.0000  0.0000  0.0000
     3 O(17)  Bbb    -0.7705    55.752    19.894    18.597  0.0000  0.0000  1.0000
              Bcc     1.5595  -112.847   -40.267   -37.642 -0.0000  1.0000  0.0000
 

 ---------------------------------------------------------------------------------

 Calling FoFJK, ICntrl=      2127 FMM=F ISym2X=1 I1Cent= 0 IOpClX= 1 NMat=1 NMatS=1 NMatT=0.
 ***** Axes restored to original set *****
 -------------------------------------------------------------------
 Center     Atomic                   Forces (Hartrees/Bohr)
 Number     Number              X              Y              Z
 -------------------------------------------------------------------
      1        7          -0.000000000   -0.000000000   -0.000018081
      2        6          -0.000000000   -0.000000000    0.000038784
      3        8          -0.000000000   -0.000000000   -0.000020703
 -------------------------------------------------------------------
 Cartesian Forces:  Max     0.000038784 RMS     0.000015846

 GradGradGradGradGradGradGradGradGradGradGradGradGradGradGradGradGradGrad
 Berny optimization.
 FormGI is forming the generalized inverse of G from B-inverse, IUseBI=4.
 Internal  Forces:  Max     0.000020703 RMS     0.000013743
 Search for a local minimum.
 Step number   1 out of a maximum of   20
 All quantities printed in internal units (Hartrees-Bohrs-Radians)
 Mixed Optimization -- En-DIIS/RFO-DIIS
 Second derivative matrix not updated -- first step.
 The second derivative matrix:
                          R1        R2        A1        A2
           R1           0.94846
           R2           0.00000   1.18354
           A1           0.00000   0.00000   0.04666
           A2           0.00000   0.00000   0.00000   0.04666
 ITU=  0
     Eigenvalues ---    0.04666   0.04666   0.94846   1.18354
 RFO step:  Lambda= 0.00000000D+00 EMin= 4.66573121D-02
 Linear search not attempted -- first point.
 Iteration  1 RMS(Cart)=  0.00000748 RMS(Int)=  0.00000000
 Iteration  2 RMS(Cart)=  0.00000000 RMS(Int)=  0.00000000
 ClnCor:  largest displacement from symmetrization is 0.00D+00 for atom     0.
 Variable       Old X    -DE/DX   Delta X   Delta X   Delta X     New X
                                 (Linear)    (Quad)   (Total)
    R1        2.30777   0.00002   0.00000   0.00002   0.00002   2.30778
    R2        2.22077  -0.00002   0.00000  -0.00002  -0.00002   2.22075
    A1        3.14159  -0.00000   0.00000   0.00000   0.00000   3.14159
    A2        3.14159  -0.00000   0.00000   0.00000   0.00000   3.14159
         Item               Value     Threshold  Converged?
 Maximum Force            0.000021     0.000450     YES
 RMS     Force            0.000014     0.000300     YES
 Maximum Displacement     0.000012     0.001800     YES
 RMS     Displacement     0.000007     0.001200     YES
 Predicted change in Energy=-3.534161D-10
 Optimization completed.
    -- Stationary point found.
                           ----------------------------
                           !   Optimized Parameters   !
                           ! (Angstroms and Degrees)  !
 --------------------------                            --------------------------
 ! Name  Definition              Value          Derivative Info.                !
 --------------------------------------------------------------------------------
 ! R1    R(1,2)                  1.2212         -DE/DX =    0.0                 !
 ! R2    R(2,3)                  1.1752         -DE/DX =    0.0                 !
 ! A1    L(1,2,3,-1,-1)        180.0            -DE/DX =    0.0                 !
 ! A2    L(1,2,3,-2,-2)        180.0            -DE/DX =    0.0                 !
 --------------------------------------------------------------------------------
 GradGradGradGradGradGradGradGradGradGradGradGradGradGradGradGradGradGrad

                          Input orientation:                          
 ---------------------------------------------------------------------
 Center     Atomic      Atomic             Coordinates (Angstroms)
 Number     Number       Type             X           Y           Z
 ---------------------------------------------------------------------
      1          7           0        0.000000    0.000000   -1.261832
      2          6           0        0.000000    0.000000   -0.040615
      3          8           0        0.000000    0.000000    1.134564
 ---------------------------------------------------------------------
                    Distance matrix (angstroms):
                    1          2          3
     1  N    0.000000
     2  C    1.221217   0.000000
     3  O    2.396396   1.175179   0.000000
 Stoichiometry    CNO(2)
 Framework group  C*V[C*(NCO)]
 Deg. of freedom     2
 Full point group                 C*V     NOp   4
 Largest Abelian subgroup         C2V     NOp   4
 Largest concise Abelian subgroup C1      NOp   1
                         Standard orientation:                         
 ---------------------------------------------------------------------
 Center     Atomic      Atomic             Coordinates (Angstroms)
 Number     Number       Type             X           Y           Z
 ---------------------------------------------------------------------
      1          7           0        0.000000    0.000000   -1.261832
      2          6           0        0.000000    0.000000   -0.040615
      3          8           0        0.000000    0.000000    1.134564
 ---------------------------------------------------------------------
 Rotational constants (GHZ):           0.0000000          11.7790268          11.7790268
 1\1\GINC-GAMBA\FOpt\UB3LYP\Gen\C1N1O1(2)\IRIKURA\29-Sep-2023\0\\# b3ly
 p/gen opt freq CPHF(Grid=OneStep)\\isocyanato radical, B3LYP/pcseg-2\\
 0,2\N,0.,0.,-1.261832\C,0.,0.,-0.040615\O,0.,0.,1.134564\\Version=ES64
 L-G16RevB.01\HF=-168.072842\S2=0.762285\S2-1=0.\S2A=0.750054\RMSD=6.95
 4e-09\RMSF=1.585e-05\Dipole=0.,0.,0.2859768\Quadrupole=0.7672501,1.767
 5757,-2.5348259,0.,0.,0.\PG=C*V [C*(N1C1O1)]\\@


 Democracy is the recurrent suspicion that more than half of the people
 are right more than half of the time.
 -- E. B. White
 Job cpu time:       0 days  0 hours  0 minutes 16.3 seconds.
 Elapsed time:       0 days  0 hours  0 minutes  4.1 seconds.
 File lengths (MBytes):  RWF=     10 Int=      0 D2E=      0 Chk=      2 Scr=      1
 Normal termination of Gaussian 16 at Fri Sep 29 02:54:30 2023.
 Link1:  Proceeding to internal job step number  2.
 ------------------------------------------------------------------
 #N Geom=AllCheck Guess=TCheck SCRF=Check GenChk UB3LYP/ChkBas Freq
 ------------------------------------------------------------------
 1/10=4,29=7,30=1,38=1,40=1/1,3;
 2/12=2,40=1/2;
 3/5=7,6=2,11=2,14=-4,25=1,30=1,67=1,70=2,71=2,74=-5,82=7,116=2,140=1/1,2,3;
 4/5=101/1;
 5/5=2,38=6,98=1/2;
 8/6=4,10=90,11=11/1;
 11/6=1,8=1,9=11,15=111,16=1/1,2,10;
 10/6=1,60=-420/2;
 6/7=2,8=2,9=2,10=2,28=1/1;
 7/8=1,10=1,25=1/1,2,3,16;
 1/10=4,30=1/3;
 99//99;
 Structure from the checkpoint file:  "nco.chk"
 ---------------------------------
 isocyanato radical, B3LYP/pcseg-2
 ---------------------------------
 Charge =  0 Multiplicity = 2
 Redundant internal coordinates found in file.  (old form).
 N,0,0.,0.,-1.261832
 C,0,0.,0.,-0.040615
 O,0,0.,0.,1.134564
 Recover connectivity data from disk.

 GradGradGradGradGradGradGradGradGradGradGradGradGradGradGradGradGradGrad
 Berny optimization.
 Initialization pass.
                           ----------------------------
                           !    Initial Parameters    !
                           ! (Angstroms and Degrees)  !
 --------------------------                            --------------------------
 ! Name  Definition              Value          Derivative Info.                !
 --------------------------------------------------------------------------------
 ! R1    R(1,2)                  1.2212         calculate D2E/DX2 analytically  !
 ! R2    R(2,3)                  1.1752         calculate D2E/DX2 analytically  !
 ! A1    L(1,2,3,-1,-1)        180.0            calculate D2E/DX2 analytically  !
 ! A2    L(1,2,3,-2,-2)        180.0            calculate D2E/DX2 analytically  !
 --------------------------------------------------------------------------------
 Trust Radius=3.00D-01 FncErr=1.00D-07 GrdErr=1.00D-07 EigMax=2.50D+02 EigMin=1.00D-04
 Number of steps in this run=      2 maximum allowed number of steps=      2.
 GradGradGradGradGradGradGradGradGradGradGradGradGradGradGradGradGradGrad

                          Input orientation:                          
 ---------------------------------------------------------------------
 Center     Atomic      Atomic             Coordinates (Angstroms)
 Number     Number       Type             X           Y           Z
 ---------------------------------------------------------------------
      1          7           0        0.000000    0.000000   -1.261832
      2          6           0        0.000000    0.000000   -0.040615
      3          8           0        0.000000    0.000000    1.134564
 ---------------------------------------------------------------------
                    Distance matrix (angstroms):
                    1          2          3
     1  N    0.000000
     2  C    1.221217   0.000000
     3  O    2.396396   1.175179   0.000000
 Stoichiometry    CNO(2)
 Framework group  C*V[C*(NCO)]
 Deg. of freedom     2
 Full point group                 C*V     NOp   4
 Largest Abelian subgroup         C2V     NOp   4
 Largest concise Abelian subgroup C1      NOp   1
                         Standard orientation:                         
 ---------------------------------------------------------------------
 Center     Atomic      Atomic             Coordinates (Angstroms)
 Number     Number       Type             X           Y           Z
 ---------------------------------------------------------------------
      1          7           0        0.000000    0.000000   -1.261832
      2          6           0        0.000000    0.000000   -0.040615
      3          8           0        0.000000    0.000000    1.134564
 ---------------------------------------------------------------------
 Rotational constants (GHZ):           0.0000000          11.7790268          11.7790268
 Basis read from chk: "nco.chk" (5D, 7F)
 There are    48 symmetry adapted cartesian basis functions of A1  symmetry.
 There are     9 symmetry adapted cartesian basis functions of A2  symmetry.
 There are    24 symmetry adapted cartesian basis functions of B1  symmetry.
 There are    24 symmetry adapted cartesian basis functions of B2  symmetry.
 There are    39 symmetry adapted basis functions of A1  symmetry.
 There are     9 symmetry adapted basis functions of A2  symmetry.
 There are    21 symmetry adapted basis functions of B1  symmetry.
 There are    21 symmetry adapted basis functions of B2  symmetry.
    90 basis functions,   153 primitive gaussians,   105 cartesian basis functions
    11 alpha electrons       10 beta electrons
       nuclear repulsion energy        52.1796186770 Hartrees.
 NAtoms=    3 NActive=    3 NUniq=    3 SFac= 1.00D+00 NAtFMM=   60 NAOKFM=F Big=F
 Integral buffers will be    131072 words long.
 Raffenetti 2 integral format.
 Two-electron integral symmetry is turned on.
 One-electron integrals computed using PRISM.
 NBasis=    90 RedAO= T EigKep=  9.58D-04  NBF=    39     9    21    21
 NBsUse=    90 1.00D-06 EigRej= -1.00D+00 NBFU=    39     9    21    21
 Initial guess from the checkpoint file:  "nco.chk"
 B after Tr=     0.000000    0.000000    0.000000
         Rot=    1.000000    0.000000    0.000000    0.000000 Ang=   0.00 deg.
 Initial guess orbital symmetries:
 Alpha Orbitals:
       Occupied  (SG) (SG) (SG) (SG) (SG) (SG) (PI) (PI) (SG) (PI)
                 (PI)
       Virtual   (PI) (SG) (PI) (SG) (PI) (PI) (SG) (SG) (PI) (PI)
                 (SG) (PI) (PI) (SG) (SG) (DLTA) (DLTA) (SG) (PI)
                 (PI) (PI) (PI) (?A) (?A) (?A) (?B) (?B) (?B) (PI)
                 (PI) (SG) (PI) (PI) (SG) (PI) (PI) (SG) (PI) (PI)
                 (SG) (SG) (DLTA) (DLTA) (PHI) (PHI) (SG) (?C)
                 (?C) (?C) (?C) (?D) (?D) (PI) (PI) (?D) (PHI)
                 (PHI) (?D) (?D) (SG) (SG) (?E) (?E) (?E) (?E)
                 (PI) (PI) (?E) (PI) (PI) (PI) (PI) (DLTA) (DLTA)
                 (SG) (PI) (PI) (SG) (SG)
 Beta  Orbitals:
       Occupied  (SG) (SG) (SG) (SG) (SG) (SG) (PI) (PI) (SG) (PI)
       Virtual   (PI) (SG) (PI) (PI) (SG) (PI) (PI) (SG) (SG) (PI)
                 (PI) (SG) (PI) (PI) (SG) (SG) (DLTA) (DLTA) (SG)
                 (PI) (PI) (PI) (PI) (SG) (DLTA) (DLTA) (SG) (DLTA)
                 (DLTA) (PI) (SG) (PI) (PI) (PI) (SG) (PI) (PI)
                 (SG) (PI) (PI) (SG) (SG) (DLTA) (DLTA) (PHI) (PHI)
                 (SG) (PI) (PI) (PHI) (PHI) (DLTA) (DLTA) (PI)
                 (PI) (SG) (PHI) (PHI) (DLTA) (DLTA) (SG) (SG)
                 (DLTA) (DLTA) (PI) (PI) (?A) (?A) (?A) (PI) (PI)
                 (PI) (PI) (DLTA) (DLTA) (SG) (PI) (PI) (SG) (SG)
 Initial guess <Sx>= 0.0000 <Sy>= 0.0000 <Sz>= 0.5000 <S**2>= 0.7623 S= 0.5061
 Keep R1 and R2 ints in memory in symmetry-blocked form, NReq=12121568.
 Requested convergence on RMS density matrix=1.00D-08 within 128 cycles.
 Requested convergence on MAX density matrix=1.00D-06.
 Requested convergence on             energy=1.00D-06.
 No special actions if energy rises.
 SCF Done:  E(UB3LYP) =  -168.072841976     A.U. after    1 cycles
            NFock=  1  Conv=0.12D-08     -V/T= 2.0028
 <Sx>= 0.0000 <Sy>= 0.0000 <Sz>= 0.5000 <S**2>= 0.7623 S= 0.5061
 <L.S>=  0.00000000000    
 Annihilation of the first spin contaminant:
 S**2 before annihilation     0.7623,   after     0.7501
 DoSCS=F DFT=T ScalE2(SS,OS)=  1.000000  1.000000
 Range of M.O.s used for correlation:     1    90
 NBasis=    90 NAE=    11 NBE=    10 NFC=     0 NFV=     0
 NROrb=     90 NOA=    11 NOB=    10 NVA=    79 NVB=    80

 **** Warning!!: The largest alpha MO coefficient is  0.14233369D+02


 **** Warning!!: The largest beta MO coefficient is  0.14256662D+02


 **** Warning!!: The smallest beta delta epsilon is  0.95827295D-01

 Symmetrizing basis deriv contribution to polar:
 IMax=3 JMax=2 DiffMx= 0.00D+00
 G2DrvN: will do     4 centers at a time, making    1 passes.
 Calling FoFCou, ICntrl=  3107 FMM=F I1Cent=   0 AccDes= 0.00D+00.
 End of G2Drv F.D. properties file   721 does not exist.
 End of G2Drv F.D. properties file   722 does not exist.
 End of G2Drv F.D. properties file   788 does not exist.
          IDoAtm=111
          Differentiating once with respect to electric field.
                with respect to dipole field.
          Differentiating once with respect to nuclear coordinates.
 Keep R1 and R2 ints in memory in symmetry-blocked form, NReq=12115318.
          There are    12 degrees of freedom in the 1st order CPHF.  IDoFFX=6 NUNeed=     3.
      9 vectors produced by pass  0 Test12= 1.39D-14 8.33D-09 XBig12= 8.49D+01 5.58D+00.
 AX will form     9 AO Fock derivatives at one time.
      9 vectors produced by pass  1 Test12= 1.39D-14 8.33D-09 XBig12= 5.32D+01 2.06D+00.
      9 vectors produced by pass  2 Test12= 1.39D-14 8.33D-09 XBig12= 2.32D+00 6.15D-01.
      9 vectors produced by pass  3 Test12= 1.39D-14 8.33D-09 XBig12= 8.94D-02 8.02D-02.
      9 vectors produced by pass  4 Test12= 1.39D-14 8.33D-09 XBig12= 1.83D-03 1.36D-02.
      9 vectors produced by pass  5 Test12= 1.39D-14 8.33D-09 XBig12= 3.63D-05 2.10D-03.
      9 vectors produced by pass  6 Test12= 1.39D-14 8.33D-09 XBig12= 5.87D-07 2.50D-04.
      5 vectors produced by pass  7 Test12= 1.39D-14 8.33D-09 XBig12= 1.66D-08 3.78D-05.
      3 vectors produced by pass  8 Test12= 1.39D-14 8.33D-09 XBig12= 1.08D-10 3.33D-06.
      1 vectors produced by pass  9 Test12= 1.39D-14 8.33D-09 XBig12= 6.05D-13 2.33D-07.
      1 vectors produced by pass 10 Test12= 1.39D-14 8.33D-09 XBig12= 3.27D-15 2.10D-08.
 InvSVY:  IOpt=1 It=  1 EMax= 6.66D-16
 Solved reduced A of dimension    73 with     9 vectors.
 Isotropic polarizability for W=    0.000000       18.89 Bohr**3.
 End of Minotr F.D. properties file   721 does not exist.
 End of Minotr F.D. properties file   722 does not exist.
 End of Minotr F.D. properties file   788 does not exist.

 **********************************************************************

            Population analysis using the SCF Density.

 **********************************************************************

 Orbital symmetries:
 Alpha Orbitals:
       Occupied  (SG) (SG) (SG) (SG) (SG) (SG) (PI) (PI) (SG) (PI)
                 (PI)
       Virtual   (PI) (SG) (PI) (SG) (PI) (PI) (SG) (SG) (PI) (PI)
                 (SG) (PI) (PI) (SG) (SG) (DLTA) (DLTA) (SG) (PI)
                 (PI) (PI) (PI) (?A) (?A) (?A) (?B) (?B) (?B) (PI)
                 (PI) (SG) (PI) (PI) (SG) (PI) (PI) (SG) (PI) (PI)
                 (SG) (SG) (DLTA) (DLTA) (PHI) (PHI) (SG) (?C)
                 (?C) (?C) (?C) (?D) (?D) (PI) (PI) (?D) (PHI)
                 (PHI) (?D) (?D) (SG) (SG) (?E) (?E) (?E) (?E)
                 (PI) (PI) (?E) (PI) (PI) (PI) (PI) (DLTA) (DLTA)
                 (SG) (PI) (PI) (SG) (SG)
 Beta  Orbitals:
       Occupied  (SG) (SG) (SG) (SG) (SG) (SG) (PI) (PI) (SG) (PI)
       Virtual   (PI) (SG) (PI) (PI) (SG) (PI) (PI) (SG) (SG) (PI)
                 (PI) (SG) (PI) (PI) (SG) (SG) (DLTA) (DLTA) (SG)
                 (PI) (PI) (PI) (PI) (SG) (DLTA) (DLTA) (SG) (DLTA)
                 (DLTA) (PI) (SG) (PI) (PI) (PI) (SG) (PI) (PI)
                 (SG) (PI) (PI) (SG) (SG) (DLTA) (DLTA) (PHI) (PHI)
                 (SG) (PI) (PI) (PHI) (PHI) (DLTA) (DLTA) (PI)
                 (PI) (SG) (PHI) (PHI) (DLTA) (DLTA) (SG) (SG)
                 (DLTA) (DLTA) (PI) (PI) (?A) (?A) (?A) (PI) (PI)
                 (PI) (PI) (DLTA) (DLTA) (SG) (PI) (PI) (SG) (SG)
 Unable to determine electronic state:  partially filled degenerate orbitals.
 Alpha  occ. eigenvalues --  -19.24677 -14.39928 -10.33598  -1.17104  -0.97502
 Alpha  occ. eigenvalues --   -0.57723  -0.53061  -0.50827  -0.44827  -0.37950
 Alpha  occ. eigenvalues --   -0.34213
 Alpha virt. eigenvalues --    0.00742   0.01910   0.02797   0.12638   0.13993
 Alpha virt. eigenvalues --    0.14511   0.25916   0.28558   0.31240   0.32465
 Alpha virt. eigenvalues --    0.33895   0.45056   0.45943   0.58139   0.70858
 Alpha virt. eigenvalues --    0.78545   0.78555   0.86073   1.04412   1.06519
 Alpha virt. eigenvalues --    1.14213   1.14910   1.21028   1.22076   1.22306
 Alpha virt. eigenvalues --    1.42106   1.56217   1.56232   1.65221   1.67546
 Alpha virt. eigenvalues --    1.67799   1.85739   1.88430   2.06300   2.15121
 Alpha virt. eigenvalues --    2.17441   2.32512   2.68455   2.70580   2.71521
 Alpha virt. eigenvalues --    2.96470   3.07900   3.07900   3.14463   3.14464
 Alpha virt. eigenvalues --    3.37875   3.59467   3.61112   3.63762   3.63776
 Alpha virt. eigenvalues --    3.80062   3.80073   3.81717   3.83496   3.92079
 Alpha virt. eigenvalues --    3.97159   3.97161   4.01397   4.01441   4.13414
 Alpha virt. eigenvalues --    4.56794   4.85954   4.85957   4.98106   4.98124
 Alpha virt. eigenvalues --    4.99830   5.01986   5.15856   5.19076   5.21337
 Alpha virt. eigenvalues --    5.87040   5.89336   5.96209   5.96221   6.26578
 Alpha virt. eigenvalues --    6.59040   6.61205   7.23114   8.03412
  Beta  occ. eigenvalues --  -19.23680 -14.38482 -10.33763  -1.15369  -0.93735
  Beta  occ. eigenvalues --   -0.56499  -0.50336  -0.48217  -0.42704  -0.32759
  Beta virt. eigenvalues --   -0.23176   0.02248   0.03214   0.05309   0.12930
  Beta virt. eigenvalues --    0.14185   0.14455   0.26164   0.29215   0.32838
  Beta virt. eigenvalues --    0.33645   0.34091   0.46156   0.46588   0.59054
  Beta virt. eigenvalues --    0.71438   0.79172   0.79239   0.87477   1.06772
  Beta virt. eigenvalues --    1.07014   1.14016   1.14600   1.21986   1.25084
  Beta virt. eigenvalues --    1.25306   1.42682   1.58007   1.58101   1.68063
  Beta virt. eigenvalues --    1.68323   1.68758   1.89318   1.90589   2.06877
  Beta virt. eigenvalues --    2.18139   2.19065   2.34088   2.70982   2.71139
  Beta virt. eigenvalues --    2.72065   2.97487   3.09121   3.09198   3.14767
  Beta virt. eigenvalues --    3.14778   3.39576   3.61043   3.61128   3.67671
  Beta virt. eigenvalues --    3.67753   3.80429   3.80482   3.83557   3.83657
  Beta virt. eigenvalues --    3.92418   3.99063   3.99073   4.02712   4.02818
  Beta virt. eigenvalues --    4.14633   4.58239   4.88111   4.88280   5.02236
  Beta virt. eigenvalues --    5.02320   5.03158   5.03642   5.17906   5.21678
  Beta virt. eigenvalues --    5.22112   5.89728   5.90193   5.99600   5.99758
  Beta virt. eigenvalues --    6.27899   6.61663   6.62121   7.23893   8.04180
          Condensed to atoms (all electrons):
               1          2          3
     1  N    6.651100   0.613266  -0.042675
     2  C    0.613266   4.399949   0.533284
     3  O   -0.042675   0.533284   7.741200
          Atomic-Atomic Spin Densities.
               1          2          3
     1  N    0.669604   0.051503  -0.014647
     2  C    0.051503  -0.061864  -0.048787
     3  O   -0.014647  -0.048787   0.416122
 Mulliken charges and spin densities:
               1          2
     1  N   -0.221691   0.706460
     2  C    0.453500  -0.059148
     3  O   -0.231810   0.352688
 Sum of Mulliken charges =   0.00000   1.00000
 Mulliken charges and spin densities with hydrogens summed into heavy atoms:
               1          2
     1  N   -0.221691   0.706460
     2  C    0.453500  -0.059148
     3  O   -0.231810   0.352688
 APT charges:
               1
     1  N   -0.225090
     2  C    0.587070
     3  O   -0.361980
 Sum of APT charges =   0.00000
 APT charges with hydrogens summed into heavy atoms:
               1
     1  N   -0.225090
     2  C    0.587070
     3  O   -0.361980
 Electronic spatial extent (au):  <R**2>=            114.7024
 Charge=             -0.0000 electrons
 Dipole moment (field-independent basis, Debye):
    X=              0.0000    Y=              0.0000    Z=              0.7269  Tot=              0.7269
 Quadrupole moment (field-independent basis, Debye-Ang):
   XX=            -16.0460   YY=            -14.7005   ZZ=            -20.4874
   XY=              0.0000   XZ=              0.0000   YZ=              0.0000
 Traceless Quadrupole moment (field-independent basis, Debye-Ang):
   XX=              1.0320   YY=              2.3775   ZZ=             -3.4094
   XY=              0.0000   XZ=              0.0000   YZ=              0.0000
 Octapole moment (field-independent basis, Debye-Ang**2):
  XXX=              0.0000  YYY=              0.0000  ZZZ=              8.3220  XYY=              0.0000
  XXY=              0.0000  XXZ=              2.1689  XZZ=              0.0000  YZZ=              0.0000
  YYZ=              1.3637  XYZ=              0.0000
 Hexadecapole moment (field-independent basis, Debye-Ang**3):
 XXXX=            -14.9463 YYYY=            -12.7031 ZZZZ=           -123.0783 XXXY=              0.0000
 XXXZ=              0.0000 YYYX=              0.0000 YYYZ=              0.0000 ZZZX=              0.0000
 ZZZY=              0.0000 XXYY=             -4.6080 XXZZ=            -22.5121 YYZZ=            -20.2760
 XXYZ=              0.0000 YYXZ=              0.0000 ZZXY=              0.0000
 N-N= 5.217961867695D+01 E-N=-4.987282620990D+02  KE= 1.675976048463D+02
 Symmetry A1   KE= 1.542209324287D+02
 Symmetry A2   KE= 2.533912477735D-35
 Symmetry B1   KE= 7.685379936814D+00
 Symmetry B2   KE= 5.691292480738D+00
 Symmetry A1   SP=-2.953459891475D-15
 Symmetry A2   SP= 5.060093187234D-36
 Symmetry B1   SP=-2.066157303842D-15
 Symmetry B2   SP= 1.000000000000D+00
  Exact polarizability:  12.178   0.000  12.360   0.000   0.000  32.129
 Approx polarizability:  15.480  -0.000  16.007  -0.000  -0.000  61.282
                          Isotropic Fermi Contact Couplings
        Atom                 a.u.       MegaHertz       Gauss      10(-4) cm-1
     1  N(14)              0.11844      38.26757      13.65482      12.76469
     2  C(13)             -0.04029     -45.29025     -16.16069     -15.10720
     3  O(17)              0.08600     -52.13448     -18.60288     -17.39019
 --------------------------------------------------------
       Center         ----  Spin Dipole Couplings  ----
                      3XX-RR        3YY-RR        3ZZ-RR
 --------------------------------------------------------
     1   Atom       -0.769803      1.619437     -0.849634
     2   Atom       -0.087227     -0.053030      0.140257
     3   Atom       -0.789043      1.559533     -0.770490
 --------------------------------------------------------
                        XY            XZ            YZ
 --------------------------------------------------------
     1   Atom        0.000000      0.000000      0.000000
     2   Atom        0.000000      0.000000      0.000000
     3   Atom        0.000000      0.000000      0.000000
 --------------------------------------------------------


 ---------------------------------------------------------------------------------
              Anisotropic Spin Dipole Couplings in Principal Axis System
 ---------------------------------------------------------------------------------

       Atom             a.u.   MegaHertz   Gauss  10(-4) cm-1        Axes

              Baa    -0.8496   -32.768   -11.693   -10.930  0.0000  0.0000  1.0000
     1 N(14)  Bbb    -0.7698   -29.690   -10.594    -9.903  1.0000  0.0000  0.0000
              Bcc     1.6194    62.458    22.287    20.834 -0.0000  1.0000  0.0000
 
              Baa    -0.0872   -11.705    -4.177    -3.904  1.0000  0.0000  0.0000
     2 C(13)  Bbb    -0.0530    -7.116    -2.539    -2.374 -0.0000  1.0000  0.0000
              Bcc     0.1403    18.821     6.716     6.278  0.0000  0.0000  1.0000
 
              Baa    -0.7890    57.095    20.373    19.045  1.0000  0.0000  0.0000
     3 O(17)  Bbb    -0.7705    55.752    19.894    18.597  0.0000  0.0000  1.0000
              Bcc     1.5595  -112.847   -40.267   -37.642 -0.0000  1.0000  0.0000
 

 ---------------------------------------------------------------------------------

 Calling FoFJK, ICntrl=    100127 FMM=F ISym2X=1 I1Cent= 0 IOpClX= 1 NMat=1 NMatS=1 NMatT=0.
 Full mass-weighted force constant matrix:
 Low frequencies ---   -0.7801   -0.0015   -0.0008   -0.0002    1.2268  510.2278
 Low frequencies ---  593.6410 1297.4798 1982.8547
 Diagonal vibrational polarizability:
        1.1648120       4.1686930       0.6638939
 Harmonic frequencies (cm**-1), IR intensities (KM/Mole), Raman scattering
 activities (A**4/AMU), depolarization ratios for plane and unpolarized
 incident light, reduced masses (AMU), force constants (mDyne/A),
 and normal coordinates:
                      1                      2                      3
                     PI                     PI                     SG
 Frequencies --    510.2278               593.6410              1297.4798
 Red. masses --     12.7089                12.7089                14.8196
 Frc consts  --      1.9493                 2.6388                14.6990
 IR Inten    --     40.3269                15.2535                 9.1220
  Atom  AN      X      Y      Z        X      Y      Z        X      Y      Z
     1   7    -0.00  -0.37  -0.00    -0.37  -0.00  -0.00     0.00   0.00   0.77
     2   6    -0.00   0.87  -0.00     0.87  -0.00  -0.00     0.00   0.00  -0.04
     3   8    -0.00  -0.33  -0.00    -0.33  -0.00  -0.00     0.00   0.00  -0.64
                      4
                     SG
 Frequencies --   1982.8547
 Red. masses --     12.7623
 Frc consts  --     29.5639
 IR Inten    --     75.6901
  Atom  AN      X      Y      Z
     1   7     0.00   0.00  -0.32
     2   6     0.00   0.00   0.87
     3   8     0.00   0.00  -0.37

 -------------------
 - Thermochemistry -
 -------------------
 Temperature   298.150 Kelvin.  Pressure   1.00000 Atm.
 Atom     1 has atomic number  7 and mass  14.00307
 Atom     2 has atomic number  6 and mass  12.00000
 Atom     3 has atomic number  8 and mass  15.99491
 Molecular mass:    41.99799 amu.
 Principal axes and moments of inertia in atomic units:
                           1         2         3
     Eigenvalues --     0.00000 153.21650 153.21650
           X            0.00000  -0.00000   1.00000
           Y            0.00000   1.00000   0.00000
           Z            1.00000   0.00000   0.00000
 This molecule is a prolate symmetric top.
 Rotational symmetry number  1.
 Rotational temperature (Kelvin)      0.56530
 Rotational constant (GHZ):          11.779027
 Zero-point vibrational energy      26223.4 (Joules/Mol)
                                    6.26753 (Kcal/Mol)
 Warning -- explicit consideration of   2 degrees of freedom as
           vibrations may cause significant error
 Vibrational temperatures:    734.10   854.12  1866.78  2852.89
          (Kelvin)
 
 Zero-point correction=                           0.009988 (Hartree/Particle)
 Thermal correction to Energy=                    0.012740
 Thermal correction to Enthalpy=                  0.013685
 Thermal correction to Gibbs Free Energy=        -0.012008
 Sum of electronic and zero-point Energies=           -168.062854
 Sum of electronic and thermal Energies=              -168.060101
 Sum of electronic and thermal Enthalpies=            -168.059157
 Sum of electronic and thermal Free Energies=         -168.084850
 
                     E (Thermal)             CV                S
                      KCal/Mol        Cal/Mol-Kelvin    Cal/Mol-Kelvin
 Total                    7.995              7.403             54.075
 Electronic               0.000              0.000              1.377
 Translational            0.889              2.981             37.132
 Rotational               0.592              1.987             14.443
 Vibrational              6.514              2.435              1.123
 Vibration     1          0.865              1.227              0.633
 Vibration     2          0.951              1.045              0.461
                       Q            Log10(Q)             Ln(Q)
 Total Bot       0.333726D+06          5.523390         12.718075
 Total V=0       0.131076D+11         10.117524         23.296459
 Vib (Bot)       0.295740D-04         -4.529089        -10.428614
 Vib (Bot)    1  0.319181D+00         -0.495963         -1.141997
 Vib (Bot)    2  0.253175D+00         -0.596579         -1.373673
 Vib (V=0)       0.116157D+01          0.065044          0.149770
 Vib (V=0)    1  0.109319D+01          0.038696          0.089102
 Vib (V=0)    2  0.106044D+01          0.025488          0.058688
 Electronic      0.200000D+01          0.301030          0.693147
 Translational   0.106979D+08          7.029297         16.185554
 Rotational      0.527415D+03          2.722153          6.267988
 ***** Axes restored to original set *****
 -------------------------------------------------------------------
 Center     Atomic                   Forces (Hartrees/Bohr)
 Number     Number              X              Y              Z
 -------------------------------------------------------------------
      1        7          -0.000000000   -0.000000000   -0.000018075
      2        6          -0.000000000   -0.000000000    0.000038856
      3        8          -0.000000000   -0.000000000   -0.000020781
 -------------------------------------------------------------------
 Cartesian Forces:  Max     0.000038856 RMS     0.000015876
 FormGI is forming the generalized inverse of G from B-inverse, IUseBI=4.

 GradGradGradGradGradGradGradGradGradGradGradGradGradGradGradGradGradGrad
 Berny optimization.
 Internal  Forces:  Max     0.000020781 RMS     0.000013771
 Search for a local minimum.
 Step number   1 out of a maximum of    2
 All quantities printed in internal units (Hartrees-Bohrs-Radians)
 Second derivative matrix not updated -- analytic derivatives used.
 The second derivative matrix:
                          R1        R2        A1        A2
           R1           0.72797
           R2           0.16154   0.86916
           A1           0.00000   0.00000   0.10808
           A2           0.00000   0.00000   0.00000   0.14631
 ITU=  0
     Eigenvalues ---    0.10808   0.14631   0.62227   0.97486
 Angle between quadratic step and forces=   5.56 degrees.
 Linear search not attempted -- first point.
 Iteration  1 RMS(Cart)=  0.00001250 RMS(Int)=  0.00000000
 Iteration  2 RMS(Cart)=  0.00000000 RMS(Int)=  0.00000001
 ClnCor:  largest displacement from symmetrization is 0.00D+00 for atom     0.
 Variable       Old X    -DE/DX   Delta X   Delta X   Delta X     New X
                                 (Linear)    (Quad)   (Total)
    R1        2.30777   0.00002   0.00000   0.00003   0.00003   2.30780
    R2        2.22077  -0.00002   0.00000  -0.00003  -0.00003   2.22074
    A1        3.14159  -0.00000   0.00000   0.00000  -0.00000   3.14159
    A2        3.14159  -0.00000   0.00000   0.00000  -0.00000   3.14159
         Item               Value     Threshold  Converged?
 Maximum Force            0.000021     0.000450     YES
 RMS     Force            0.000014     0.000300     YES
 Maximum Displacement     0.000020     0.001800     YES
 RMS     Displacement     0.000013     0.001200     YES
 Predicted change in Energy=-5.931879D-10
 Optimization completed.
    -- Stationary point found.
                           ----------------------------
                           !   Optimized Parameters   !
                           ! (Angstroms and Degrees)  !
 --------------------------                            --------------------------
 ! Name  Definition              Value          Derivative Info.                !
 --------------------------------------------------------------------------------
 ! R1    R(1,2)                  1.2212         -DE/DX =    0.0                 !
 ! R2    R(2,3)                  1.1752         -DE/DX =    0.0                 !
 ! A1    L(1,2,3,-1,-1)        180.0            -DE/DX =    0.0                 !
 ! A2    L(1,2,3,-2,-2)        180.0            -DE/DX =    0.0                 !
 --------------------------------------------------------------------------------
 GradGradGradGradGradGradGradGradGradGradGradGradGradGradGradGradGradGrad


 ----------------------------------------------------------------------

 Electric dipole moment (input orientation):
 (Debye = 10**-18 statcoulomb cm , SI units = C m)
                  (au)            (Debye)         (10**-30 SI)
   Tot        0.285977D+00      0.726881D+00      0.242461D+01
   x          0.000000D+00      0.000000D+00      0.000000D+00
   y          0.000000D+00      0.000000D+00      0.000000D+00
   z          0.285977D+00      0.726881D+00      0.242461D+01

 Dipole polarizability, Alpha (input orientation).
 (esu units = cm**3 , SI units = C**2 m**2 J**-1)
 Alpha(0;0):
               (au)            (10**-24 esu)      (10**-40 SI)
   iso        0.188891D+02      0.279907D+01      0.311439D+01
   aniso      0.198601D+02      0.294296D+01      0.327448D+01
   xx         0.121781D+02      0.180460D+01      0.200789D+01
   yx         0.000000D+00      0.000000D+00      0.000000D+00
   yy         0.123605D+02      0.183163D+01      0.203797D+01
   zx         0.000000D+00      0.000000D+00      0.000000D+00
   zy         0.000000D+00      0.000000D+00      0.000000D+00
   zz         0.321287D+02      0.476098D+01      0.529731D+01

 ----------------------------------------------------------------------

 Dipole orientation:
     7          0.00000000          0.00000000         -2.38451690
     6          0.00000000          0.00000000         -0.07675123
     8          0.00000000          0.00000000          2.14401523

 Electric dipole moment (dipole orientation):
 (Debye = 10**-18 statcoulomb cm , SI units = C m)
                  (au)            (Debye)         (10**-30 SI)
   Tot        0.285977D+00      0.726881D+00      0.242461D+01
   x          0.000000D+00      0.000000D+00      0.000000D+00
   y          0.000000D+00      0.000000D+00      0.000000D+00
   z          0.285977D+00      0.726881D+00      0.242461D+01

 Dipole polarizability, Alpha (dipole orientation).
 (esu units = cm**3 , SI units = C**2 m**2 J**-1)
 Alpha(0;0):
               (au)            (10**-24 esu)      (10**-40 SI)
   iso        0.188891D+02      0.279907D+01      0.311439D+01
   aniso      0.198601D+02      0.294296D+01      0.327448D+01
   xx         0.121781D+02      0.180460D+01      0.200789D+01
   yx         0.000000D+00      0.000000D+00      0.000000D+00
   yy         0.123605D+02      0.183163D+01      0.203797D+01
   zx         0.000000D+00      0.000000D+00      0.000000D+00
   zy         0.000000D+00      0.000000D+00      0.000000D+00
   zz         0.321287D+02      0.476098D+01      0.529731D+01

 ----------------------------------------------------------------------
 1\1\GINC-GAMBA\Freq\UB3LYP\Gen\C1N1O1(2)\IRIKURA\29-Sep-2023\0\\#N Geo
 m=AllCheck Guess=TCheck SCRF=Check GenChk UB3LYP/ChkBas Freq\\isocyana
 to radical, B3LYP/pcseg-2\\0,2\N,0.,0.,-1.261832\C,0.,0.,-0.040615\O,0
 .,0.,1.134564\\Version=ES64L-G16RevB.01\HF=-168.072842\S2=0.762285\S2-
 1=0.\S2A=0.750054\RMSD=1.218e-09\RMSF=1.588e-05\ZeroPoint=0.0099879\Th
 ermal=0.0127405\Dipole=0.,0.,0.2859771\DipoleDeriv=-0.2418424,0.,0.,0.
 ,-0.354229,0.,0.,0.,-0.0791994,0.3643852,0.,0.,0.,0.5935489,0.,0.,0.,0
 .8032765,-0.1225428,0.,0.,0.,-0.23932,0.,0.,0.,-0.724077\Polar=12.1780
 518,0.,12.3604658,0.,0.,32.1287105\Quadrupole=0.7672504,1.7675761,-2.5
 348266,0.,0.,0.\PG=C*V [C*(N1C1O1)]\NImag=0\\0.02746646,0.,0.02028616,
 0.,0.,0.72797122,-0.05601470,0.,0.,0.11423731,0.,-0.04137581,0.,0.,0.0
 8438969,0.,0.,-0.56643157,0.,0.,1.27405418,0.02854823,0.,0.,-0.0582226
 1,0.,0.,0.02967438,0.,0.02108965,0.,0.,-0.04301388,0.,0.,0.02192424,0.
 ,0.,-0.16153965,0.,0.,-0.70762261,0.,0.,0.86916226\\0.,0.,0.00001808,0
 .,0.,-0.00003886,0.,0.,0.00002078\\\@


 WHEN ALL ELSE FAILS, TRY THE BOSS'S SUGGESTION.
 Job cpu time:       0 days  0 hours  1 minutes 34.5 seconds.
 Elapsed time:       0 days  0 hours  0 minutes 23.6 seconds.
 File lengths (MBytes):  RWF=     10 Int=      0 D2E=      0 Chk=      2 Scr=      1
 Normal termination of Gaussian 16 at Fri Sep 29 02:54:54 2023.
 AtFile(1): ccpvtz-f12.gbs
            -H     0
            S    3   1.00
                 82.6400000              0.0020060
                 12.4100000              0.0153430
                  2.8240000              0.0755790
            S    1   1.00
                  0.7977000              1.0000000
            S    1   1.00
                  0.2581000              1.0000000
            S    1   1.00
                  0.0898900              1.0000000
            P    1   1.00
                  1.5513000              1.0000000
            P    1   1.00
                  0.5580000              1.0000000
            P    1   1.00
                  0.2007000              1.0000000
            D    1   1.00
                  0.4648000              1.0000000
            ****
            -He     0
            S    4   1.00
                528.5000000              0.0009400
                 79.3100000              0.0072140
                 18.0500000              0.0359750
                  5.0850000              0.1277820
            S    1   1.00
                  1.6090000              1.0000000
            S    1   1.00
                  0.5363000              1.0000000
            S    1   1.00
                  0.1833000              1.0000000
            S    1   1.00
                  0.0481900              1.0000000
            P    1   1.00
                  3.7026000              1.0000000
            P    1   1.00
                  1.2284000              1.0000000
            P    1   1.00
                  0.4075000              1.0000000
            D    1   1.00
                  0.6525000              1.0000000
            ****
            -Li     0
            S    9   1.00
               6601.0000000              0.0001170
                989.7000000              0.0009110
                225.7000000              0.0047280
                 64.2900000              0.0191970
                 21.1800000              0.0630470
                  7.7240000              0.1632080
                  3.0030000              0.3148270
                  1.2120000              0.3939360
                  0.4930000              0.1969180
            S    9   1.00
               6601.0000000             -0.0000180
                989.7000000             -0.0001420
                225.7000000             -0.0007410
                 64.2900000             -0.0030200
                 21.1800000             -0.0101230
                  7.7240000             -0.0270940
                  3.0030000             -0.0573590
                  1.2120000             -0.0938950
                  0.4930000             -0.1210910
            S    1   1.00
                  0.0951500              1.0000000
            S    1   1.00
                  0.0479100              1.0000000
            S    1   1.00
                  0.0222000              1.0000000
            S    1   1.00
                  0.0064000              1.0000000
            P    2   1.00
                  6.2500000              0.0033880
                  1.3700000              0.0193160
            P    1   1.00
                  0.3672000              1.0000000
            P    1   1.00
                  0.1192000              1.0000000
            P    1   1.00
                  0.0447400              1.0000000
            P    1   1.00
                  0.0179500              1.0000000
            P    1   1.00
                  0.0075000              1.0000000
            D    1   1.00
                  0.2351180              1.0000000
            D    1   1.00
                  0.1194040              1.0000000
            D    1   1.00
                  0.0606390              1.0000000
            F    1   1.00
                  0.1637750              1.0000000
            F    1   1.00
                  0.0759100              1.0000000
            ****
            -Be     0
            S    9   1.00
              14630.0000000              0.0000920
               2191.0000000              0.0007130
                498.2000000              0.0037350
                140.9000000              0.0154680
                 45.8600000              0.0528740
                 16.4700000              0.1456940
[...]
 1/29=2,38=1,172=1/1;
 2/12=2,40=1/2;
 3/5=7,11=2,14=-4,25=1,30=1,116=101/1,2,3;
 4/5=1/1;
 5/5=2,38=6/2;
 6/7=2,8=2,9=2,10=2,28=1/1;
 99/5=1,9=1/99;
 ------------------------------------
 isocyanato radical, ROHF/cc-pVTZ-F12
 ------------------------------------
 Structure from the checkpoint file:  "nco.chk"
 Charge =  0 Multiplicity = 2
 Redundant internal coordinates found in file.  (old form).
 N,0,0.,0.,-1.261832
 C,0,0.,0.,-0.040615
 O,0,0.,0.,1.134564
 Recover connectivity data from disk.
                           ----------------------------
                           !    Current Parameters    !
                           ! (Angstroms and Degrees)  !
 --------------------------                            --------------------------
 ! Name  Definition              Value                                          !
 --------------------------------------------------------------------------------
 ! R1    R(1,2)                  1.2212                                         !
 ! R2    R(2,3)                  1.1752                                         !
 ! A1    L(1,2,3,-1,-1)        180.0                                            !
 ! A2    L(1,2,3,-2,-2)        180.0                                            !
 --------------------------------------------------------------------------------
                          Input orientation:                          
 ---------------------------------------------------------------------
 Center     Atomic      Atomic             Coordinates (Angstroms)
 Number     Number       Type             X           Y           Z
 ---------------------------------------------------------------------
      1          7           0        0.000000    0.000000   -1.261832
      2          6           0        0.000000    0.000000   -0.040615
      3          8           0        0.000000    0.000000    1.134564
 ---------------------------------------------------------------------
                    Distance matrix (angstroms):
                    1          2          3
     1  N    0.000000
     2  C    1.221217   0.000000
     3  O    2.396396   1.175179   0.000000
 Stoichiometry    CNO(2)
 Framework group  C*V[C*(NCO)]
 Deg. of freedom     2
 Full point group                 C*V     NOp   4
 Largest Abelian subgroup         C2V     NOp   4
 Largest concise Abelian subgroup C1      NOp   1
                         Standard orientation:                         
 ---------------------------------------------------------------------
 Center     Atomic      Atomic             Coordinates (Angstroms)
 Number     Number       Type             X           Y           Z
 ---------------------------------------------------------------------
      1          7           0        0.000000    0.000000   -1.261832
      2          6           0        0.000000    0.000000   -0.040615
      3          8           0        0.000000    0.000000    1.134564
 ---------------------------------------------------------------------
 Rotational constants (GHZ):           0.0000000          11.7790268          11.7790268
 General basis read from cards:  (5D, 7F)
 There are    81 symmetry adapted cartesian basis functions of A1  symmetry.
 There are    15 symmetry adapted cartesian basis functions of A2  symmetry.
 There are    45 symmetry adapted cartesian basis functions of B1  symmetry.
 There are    45 symmetry adapted cartesian basis functions of B2  symmetry.
 There are    66 symmetry adapted basis functions of A1  symmetry.
 There are    15 symmetry adapted basis functions of A2  symmetry.
 There are    39 symmetry adapted basis functions of B1  symmetry.
 There are    39 symmetry adapted basis functions of B2  symmetry.
   159 basis functions,   234 primitive gaussians,   186 cartesian basis functions
    11 alpha electrons       10 beta electrons
       nuclear repulsion energy        52.1796186770 Hartrees.
 NAtoms=    3 NActive=    3 NUniq=    3 SFac= 1.00D+00 NAtFMM=   60 NAOKFM=F Big=F
 Integral buffers will be    131072 words long.
 Raffenetti 2 integral format.
 Two-electron integral symmetry is turned on.
 One-electron integrals computed using PRISM.
 NBasis=   159 RedAO= T EigKep=  6.91D-05  NBF=    66    15    39    39
 NBsUse=   159 1.00D-06 EigRej= -1.00D+00 NBFU=    66    15    39    39
 Initial guess from the checkpoint file:  "nco.chk"
 B after Tr=     0.000000    0.000000    0.000000
         Rot=    1.000000    0.000000    0.000000    0.000000 Ang=   0.00 deg.
 BiOrM2:  NumA=      11 NumB=      10.
 Eigenvalues of SAB:
  1.00000000  0.99999995  0.99999976  0.99997508  0.99997195
  0.99993951  0.99990969  0.99956652  0.99952273  0.99496294
  0.00000000
 BiOrM2:  NumA=       1 NumB=     149.
 Eigenvalues of SAB:
  1.00000000  0.00000000 -0.00000000  0.00000000  0.00000000
  0.00000000  0.00000000  0.00000000  0.00000000  0.00000000
  0.34761799  0.00000000  0.00000000 -0.14065999  0.00000000
  0.00000000 -0.25704751  0.00000000  0.00000000  0.19126893
  0.00000000  0.00000000  0.30989371  0.00000000  0.00000000
 -0.43074290  0.00000000  0.00000000  0.00000000 -0.01536790
  0.00000000  0.00000000  0.00000000  0.00000000  0.01214739
  0.00000000  0.00000000  0.00000000  0.00000000 -0.02322948
  0.00000000  0.00000000  0.00000000  0.00000000  0.10877522
  0.00000000  0.00000000  0.00000000  0.00000000  0.00000000
  0.00000000 -0.06576820  0.00000000  0.00000000  0.00000000
 -0.00000000  0.00000000  0.00000000  0.00000000  0.00000000
  0.00000000  0.00000000  0.00000000  0.32074482  0.00000000
  0.00000000 -0.12817056  0.00000000  0.00000000 -0.26992104
  0.00000000  0.00000000  0.05853300  0.00000000  0.00000000
  0.29080346  0.00000000  0.00000000 -0.19660080  0.00000000
  0.00000000  0.00000000 -0.05662699  0.00000000  0.00000000
  0.00000000  0.00000000  0.03929369  0.00000000  0.00000000
  0.00000000  0.00000000  0.06976304  0.00000000  0.00000000
  0.00000000  0.00000000  0.21035903  0.00000000  0.00000000
  0.00000000 -0.00000000  0.00000000  0.00000000 -0.15808080
  0.00000000  0.00000000  0.00000000  0.00000000  0.00000000
  0.00000000  0.00000000  0.00000000  0.00000000  0.00000000
  0.00000000 -0.00000000  0.00000000  0.00000000  0.00000000
  0.00000000  0.00000000 -0.00000000  0.00000000  0.00000000
  0.00000000  0.00000000  0.00000000 -0.00000000  0.00000000
  0.00000000  0.00000000  0.00000000  0.00000000  0.00000000
  0.00000000  0.00000000  0.00000000  0.00000000  0.00000000
 -0.00000000  0.00000000  0.00000000  0.00000000  0.00000000
  0.00000000  0.00000000  0.00000000  0.00000000
 BiOrM2:  NumA=     148 NumB=     148.
 Eigenvalues of SAB:
  1.00000000  1.00000000  1.00000000  1.00000000  1.00000000
  1.00000000  1.00000000  1.00000000  1.00000000  1.00000000
  1.00000000  1.00000000  1.00000000  1.00000000  1.00000000
  1.00000000  1.00000000  1.00000000  1.00000000  1.00000000
  1.00000000  1.00000000  1.00000000  1.00000000  1.00000000
  1.00000000  1.00000000  1.00000000  1.00000000  1.00000000
  1.00000000  1.00000000  1.00000000  1.00000000  1.00000000
  1.00000000  1.00000000  1.00000000  1.00000000  1.00000000
  1.00000000  1.00000000  1.00000000  1.00000000  1.00000000
  1.00000000  1.00000000  1.00000000  1.00000000  1.00000000
  1.00000000  1.00000000  1.00000000  1.00000000  1.00000000
  1.00000000  1.00000000  1.00000000  1.00000000  1.00000000
  1.00000000  1.00000000  1.00000000  1.00000000  1.00000000
  1.00000000  1.00000000  1.00000000  1.00000000  1.00000000
  1.00000000  1.00000000  1.00000000  1.00000000  1.00000000
  1.00000000  1.00000000  1.00000000  1.00000000  1.00000000
  1.00000000  1.00000000  1.00000000  1.00000000  1.00000000
  1.00000000  1.00000000  1.00000000  1.00000000  1.00000000
  1.00000000  1.00000000  1.00000000  1.00000000  1.00000000
  1.00000000  1.00000000  1.00000000  1.00000000  1.00000000
  1.00000000  1.00000000  1.00000000  1.00000000  1.00000000
  1.00000000  1.00000000  1.00000000  1.00000000  1.00000000
  1.00000000  1.00000000  1.00000000  1.00000000  1.00000000
  1.00000000  1.00000000  1.00000000  1.00000000  1.00000000
  1.00000000  1.00000000  1.00000000  1.00000000  1.00000000
  1.00000000  1.00000000  1.00000000  1.00000000  1.00000000
  1.00000000  1.00000000  1.00000000  1.00000000  1.00000000
  1.00000000  1.00000000  1.00000000  1.00000000  0.99999995
  0.99999976  0.99997508  0.99997195  0.99993951  0.99990969
  0.99956652  0.99952273  0.99496294
 Initial guess orbital symmetries:
       Occupied  (SG) (SG) (SG) (?A) (SG) (SG) (SG) (?A) (SG) (?A)
                 (?A)
       Virtual   (SG) (SG) (?B) (?B) (?B) (?B) (?B) (?B) (?B) (?B)
                 (?B) (?B) (?B) (?B) (?B) (?B) (?B) (?B) (?B) (?B)
                 (?B) (?B) (?B) (?B) (?B) (?B) (?B) (?B) (?B) (?B)
                 (?B) (?B) (?B) (?B) (?B) (?B) (?B) (?B) (?B) (?B)
                 (?B) (?B) (?B) (?B) (?B) (?B) (?B) (?B) (?B) (?B)
                 (?B) (?B) (?B) (?B) (?B) (?B) (?B) (?B) (?B) (?B)
                 (?B) (?B) (?B) (?B) (?B) (?B) (?B) (?B) (?B) (?B)
                 (?B) (?B) (?B) (?B) (?B) (?B) (?B) (?B) (?B) (?B)
                 (?B) (?B) (?B) (?B) (?B) (?B) (?B) (?B) (?B) (?B)
                 (?B) (?B) (?B) (?B) (?B) (?B) (?B) (?B) (?B) (?B)
                 (?B) (?B) (?B) (?B) (?B) (?B) (?B) (?B) (?B) (?B)
                 (?B) (?B) (?B) (?B) (?B) (?B) (?B) (?B) (?B) (?B)
                 (?B) (?B) (?B) (?B) (?B) (?B) (?B) (?B) (?B) (?B)
                 (?B) (?B) (?B) (?B) (?B) (SG) (?B) (SG) (?B) (?B)
                 (?B) (?B) (?B) (?B) (?B) (?B) (?B) (?B)
 Keep R1 and R2 ints in memory in symmetry-blocked form, NReq=101646810.
 Requested convergence on RMS density matrix=1.00D-08 within 128 cycles.
 Requested convergence on MAX density matrix=1.00D-06.
 Requested convergence on             energy=1.00D-06.
 No special actions if energy rises.
 An orbital has undefined symmetry, so N**3 symmetry is turned off.
 SCF Done:  E(ROHF) =  -167.191603936     A.U. after   15 cycles
            NFock= 15  Conv=0.45D-08     -V/T= 2.0013
 <Sx>= 0.0000 <Sy>= 0.0000 <Sz>= 0.5000 <S**2>= 0.7500 S= 0.5000
 <L.S>=  0.00000000000    
 Annihilation of the first spin contaminant:
 S**2 before annihilation     0.7500,   after     0.7500

 **********************************************************************

            Population analysis using the SCF Density.

 **********************************************************************

 Orbital symmetries:
       Occupied  (SG) (SG) (SG) (SG) (SG) (SG) (?A) (?A) (SG) (?A)
                 (?A)
       Virtual   (SG) (PI) (PI) (SG) (SG) (PI) (PI) (SG) (?A) (?A)
                 (?A) (?A) (SG) (SG) (SG) (PI) (PI) (SG) (SG) (PI)
                 (PI) (DLTA) (DLTA) (SG) (PI) (PI) (SG) (?B) (?B)
                 (?B) (PI) (PI) (SG) (?C) (?C) (?C) (PHI) (PHI)
                 (PI) (?C) (PI) (PI) (PI) (SG) (?C) (PI) (PI) (?C)
                 (?C) (?C) (?D) (?D) (?D) (?D) (PI) (PI) (?E) (?E)
                 (?E) (PHI) (PHI) (PI) (PI) (?C) (?C) (?C) (PI)
                 (PI) (?C) (?F) (?F) (?F) (SG) (?G) (?G) (PI) (PI)
                 (?G) (SG) (DLTA) (DLTA) (PI) (PI) (PI) (PI) (SG)
                 (PI) (PI) (SG) (PHI) (PHI) (DLTA) (DLTA) (PI)
                 (PI) (SG) (PI) (PI) (SG) (PHI) (PHI) (?H) (?H)
                 (?H) (PI) (PI) (SG) (PHI) (PHI) (?I) (?I) (?I)
                 (DLTA) (DLTA) (PI) (PI) (SG) (PI) (PI) (PI) (PI)
                 (SG) (SG) (DLTA) (DLTA) (PI) (PI) (PI) (PI) (?J)
                 (?J) (?J) (PI) (PI) (SG) (SG) (PI) (PI) (SG) (SG)
                 (PI) (PI) (SG) (SG) (PI) (PI) (SG) (SG)
 Unable to determine electronic state:  an orbital has unidentified symmetry.
 Alpha  occ. eigenvalues --  -20.66495 -15.64228 -11.43154  -1.49992  -1.24678
 Alpha  occ. eigenvalues --   -0.77893  -0.68540  -0.63867  -0.62776  -0.47439
 Alpha  occ. eigenvalues --   -0.18210
 Alpha virt. eigenvalues --    0.04678   0.06410   0.06607   0.06678   0.13511
 Alpha virt. eigenvalues --    0.14440   0.14569   0.19327   0.19360   0.19444
 Alpha virt. eigenvalues --    0.22069   0.22203   0.22388   0.24092   0.40283
 Alpha virt. eigenvalues --    0.43266   0.43760   0.49102   0.56278   0.57832
 Alpha virt. eigenvalues --    0.58649   0.62109   0.62112   0.64716   0.70192
 Alpha virt. eigenvalues --    0.70305   0.73080   0.90961   0.99253   0.99253
 Alpha virt. eigenvalues --    1.03450   1.04531   1.13409   1.22605   1.30015
 Alpha virt. eigenvalues --    1.30021   1.31611   1.31612   1.40729   1.41003
 Alpha virt. eigenvalues --    1.41651   1.55025   1.56255   1.58242   1.66361
 Alpha virt. eigenvalues --    1.68991   1.69879   1.81657   1.81677   1.83577
 Alpha virt. eigenvalues --    1.84262   1.85253   1.93649   1.93655   2.10340
 Alpha virt. eigenvalues --    2.11670   2.14809   2.14845   2.21979   2.32681
 Alpha virt. eigenvalues --    2.32681   2.62183   2.63745   2.66550   2.67244
 Alpha virt. eigenvalues --    2.67471   2.81778   2.83127   2.84515   3.00793
 Alpha virt. eigenvalues --    3.00816   3.11212   3.19563   3.41772   3.41805
 Alpha virt. eigenvalues --    3.50148   3.52330   3.57404   3.75350   3.84543
 Alpha virt. eigenvalues --    3.84544   3.88235   3.89853   4.04442   4.05187
 Alpha virt. eigenvalues --    4.06447   4.16796   4.18206   4.19498   4.46776
 Alpha virt. eigenvalues --    4.46776   4.63042   4.63049   5.16328   5.17578
 Alpha virt. eigenvalues --    5.38849   5.63849   5.65431   5.84947   6.02437
 Alpha virt. eigenvalues --    6.02439   6.30011   6.30572   6.32505   6.64170
 Alpha virt. eigenvalues --    6.66319   6.77556   6.81345   6.81345   7.16065
 Alpha virt. eigenvalues --    7.16877   7.16987   7.65968   7.65969   7.76618
 Alpha virt. eigenvalues --    7.78708   8.19647   8.24001   8.26118   8.55837
 Alpha virt. eigenvalues --    8.57425   9.04880   9.53712  10.22060  10.22061
 Alpha virt. eigenvalues --   10.35599  10.37016  10.76521  10.79066  11.14566
 Alpha virt. eigenvalues --   11.14585  11.16111  11.73183  11.74433  11.95459
 Alpha virt. eigenvalues --   12.92268  20.65179  20.65714  23.33789  24.68292
 Alpha virt. eigenvalues --   29.86757  29.89025  30.52595  32.29401  37.90233
 Alpha virt. eigenvalues --   37.91374  38.60432  44.21979
          Condensed to atoms (all electrons):
               1          2          3
     1  N    6.711708   0.596590  -0.066348
     2  C    0.596590   4.136438   0.648775
     3  O   -0.066348   0.648775   7.793822
          Atomic-Atomic Spin Densities.
               1          2          3
     1  N    0.663682   0.099169  -0.014000
     2  C    0.099169   0.063669  -0.017022
     3  O   -0.014000  -0.017022   0.136354
 Mulliken charges and spin densities:
               1          2
     1  N   -0.241950   0.748852
     2  C    0.618198   0.145816
     3  O   -0.376248   0.105332
 Sum of Mulliken charges =  -0.00000   1.00000
 Mulliken charges and spin densities with hydrogens summed into heavy atoms:
               1          2
     1  N   -0.241950   0.748852
     2  C    0.618198   0.145816
     3  O   -0.376248   0.105332
 Electronic spatial extent (au):  <R**2>=            115.0525
 Charge=             -0.0000 electrons
 Dipole moment (field-independent basis, Debye):
    X=              0.0000    Y=             -0.0000    Z=              0.2593  Tot=              0.2593
 Quadrupole moment (field-independent basis, Debye-Ang):
   XX=            -16.0525   YY=            -14.6719   ZZ=            -20.9805
   XY=              0.0000   XZ=              0.0000   YZ=              0.0000
 Traceless Quadrupole moment (field-independent basis, Debye-Ang):
   XX=              1.1825   YY=              2.5630   ZZ=             -3.7455
   XY=              0.0000   XZ=              0.0000   YZ=              0.0000
 Octapole moment (field-independent basis, Debye-Ang**2):
  XXX=              0.0000  YYY=             -0.0000  ZZZ=              7.6646  XYY=              0.0000
  XXY=              0.0000  XXZ=              2.1092  XZZ=              0.0000  YZZ=              0.0000
  YYZ=              0.9568  XYZ=             -0.0000
 Hexadecapole moment (field-independent basis, Debye-Ang**3):
 XXXX=            -14.4716 YYYY=            -12.2569 ZZZZ=           -121.5688 XXXY=              0.0000
 XXXZ=              0.0000 YYYX=              0.0000 YYYZ=              0.0000 ZZZX=              0.0000
 ZZZY=             -0.0000 XXYY=             -4.4542 XXZZ=            -22.4045 YYZZ=            -20.2301
 XXYZ=              0.0000 YYXZ=              0.0000 ZZXY=              0.0000
 N-N= 5.217961867695D+01 E-N=-4.976967358651D+02  KE= 1.669778320262D+02
 Symmetry A1   KE= 1.540879764020D+02
 Symmetry A2   KE= 8.289637588532D-29
 Symmetry B1   KE= 7.380659045902D+00
 Symmetry B2   KE= 5.509196578334D+00
 Symmetry A1   SP= 3.069819503675D-17
 Symmetry A2   SP= 3.962668424492D-30
 Symmetry B1   SP= 0.000000000000D+00
 Symmetry B2   SP= 1.000000000000D+00
                          Isotropic Fermi Contact Couplings
        Atom                 a.u.       MegaHertz       Gauss      10(-4) cm-1
     1  N(14)             -0.00000      -0.00000      -0.00000      -0.00000
     2  C(13)              0.00000       0.00000       0.00000       0.00000
     3  O(17)             -0.00000       0.00000       0.00000       0.00000
 --------------------------------------------------------
       Center         ----  Spin Dipole Couplings  ----
                      3XX-RR        3YY-RR        3ZZ-RR
 --------------------------------------------------------
     1   Atom       -0.879605      1.715013     -0.835408
     2   Atom       -0.121581      0.086677      0.034904
     3   Atom       -0.238224      0.445063     -0.206839
 --------------------------------------------------------
                        XY            XZ            YZ
 --------------------------------------------------------
     1   Atom        0.000000      0.000000      0.000000
     2   Atom        0.000000      0.000000      0.000000
     3   Atom        0.000000      0.000000      0.000000
 --------------------------------------------------------


 ---------------------------------------------------------------------------------
              Anisotropic Spin Dipole Couplings in Principal Axis System
 ---------------------------------------------------------------------------------

       Atom             a.u.   MegaHertz   Gauss  10(-4) cm-1        Axes

              Baa    -0.8796   -33.924   -12.105   -11.316  1.0000  0.0000  0.0000
     1 N(14)  Bbb    -0.8354   -32.220   -11.497   -10.747  0.0000  0.0000  1.0000
              Bcc     1.7150    66.144    23.602    22.063 -0.0000  1.0000  0.0000
 
              Baa    -0.1216   -16.315    -5.822    -5.442  1.0000  0.0000  0.0000
     2 C(13)  Bbb     0.0349     4.684     1.671     1.562  0.0000  0.0000  1.0000
              Bcc     0.0867    11.631     4.150     3.880 -0.0000  1.0000  0.0000
 
              Baa    -0.2382    17.238     6.151     5.750  1.0000  0.0000  0.0000
     3 O(17)  Bbb    -0.2068    14.967     5.340     4.992  0.0000  0.0000  1.0000
              Bcc     0.4451   -32.204   -11.491   -10.742 -0.0000  1.0000  0.0000
 

 ---------------------------------------------------------------------------------

 1\1\GINC-GAMBA\SP\ROHF\Gen\C1N1O1(2)\IRIKURA\29-Sep-2023\0\\# rohf/gen
  geom=check guess=check\\isocyanato radical, ROHF/cc-pVTZ-F12\\0,2\N,0
 ,0.,0.,-1.261832\C,0,0.,0.,-0.040615\O,0,0.,0.,1.134564\\Version=ES64L
 -G16RevB.01\HF=-167.1916039\RMSD=4.462e-09\Dipole=0.,0.,0.1020312\Quad
 rupole=0.8791702,1.9055488,-2.784719,0.,0.,0.\PG=C*V [C*(N1C1O1)]\\@


 There was a great rattling of the words for the fewness of ideas.
                   -- Charles Baxter in Gryphon
 Job cpu time:       0 days  0 hours  0 minutes 23.2 seconds.
 Elapsed time:       0 days  0 hours  0 minutes  6.0 seconds.
 File lengths (MBytes):  RWF=     14 Int=      0 D2E=      0 Chk=      3 Scr=      1
 Normal termination of Gaussian 16 at Fri Sep 29 02:55:00 2023.
