 Entering Gaussian System, Link 0=g16
 AtFile(1): pcseg2.gbs
            -H     0
            S   4   1.00
                  0.754732D+02           0.427821D-02
                  0.113575D+02           0.328672D-01
                  0.260081D+01           0.159578D+00
                  0.735503D+00           0.500000D+00
            S   1   1.00
                  0.231761D+00           1.0000000
            S   1   1.00
                  0.741675D-01           1.0000000
            P   1   1.00
                  0.160000D+01           1.0000000
            P   1   1.00
                  0.450000D+00           1.0000000
            D   1   1.00
                  0.125000D+01           1.0000000
            ****
            -C     0
            S   7   1.00
                  0.731999D+04           0.695369D-03
                  0.109818D+04           0.537138D-02
                  0.250014D+03           0.274734D-01
                  0.707586D+02           0.105078D+00
                  0.228595D+02           0.291262D+00
                  0.803936D+01           0.500000D+00
                  0.289309D+01           0.362224D+00
            S   2   1.00
                  0.521640D+01          -0.957844D-01
                  0.556124D+00           0.500000D+00
            S   1   1.00
                  0.228813D+00           1.0000000
            S   1   1.00
                  0.936338D-01           1.0000000
            P   4   1.00
                  0.339855D+02           0.818395D-02
                  0.772957D+01           0.586921D-01
                  0.224954D+01           0.222514D+00
                  0.767681D+00           0.500000D+00
            P   1   1.00
                  0.263283D+00           1.0000000
            P   1   1.00
                  0.848744D-01           1.0000000
            D   1   1.00
                  0.140000D+01           1.0000000
            D   1   1.00
                  0.450000D+00           1.0000000
            F   1   1.00
                  0.950000D+00           1.0000000
            ****
            -O     0
            S   7   1.00
                  0.135887D+05           0.665492D-03
                  0.203847D+04           0.514222D-02
                  0.464041D+03           0.263472D-01
                  0.131339D+03           0.101500D+00
                  0.425340D+02           0.285877D+00
                  0.150429D+02           0.500000D+00
                  0.546616D+01           0.368211D+00
            S   2   1.00
                  0.100915D+02          -0.100084D+00
                  0.110429D+01           0.500000D+00
            S   1   1.00
                  0.448082D+00           1.0000000
            S   1   1.00
                  0.175325D+00           1.0000000
            P   4   1.00
                  0.608220D+02           0.908253D-02
                  0.140332D+02           0.645878D-01
                  0.418244D+01           0.241502D+00
                  0.142490D+01           0.500000D+00
            P   1   1.00
                  0.478741D+00           1.0000000
            P   1   1.00
                  0.146257D+00           1.0000000
            D   1   1.00
                  0.220000D+01           1.0000000
            D   1   1.00
                  0.650000D+00           1.0000000
            F   1   1.00
                  0.110000D+01           1.0000000
            ****
            -N     0
            S   7   1.00
                  0.101643D+05           0.682757D-03
                  0.152481D+04           0.527488D-02
                  0.347119D+03           0.270037D-01
                  0.982389D+02           0.103673D+00
                  0.317799D+02           0.289575D+00
                  0.112240D+02           0.500000D+00
                  0.406611D+01           0.364621D+00
            S   2   1.00
                  0.747898D+01          -0.975681D-01
                  0.805040D+00           0.500000D+00
            S   1   1.00
                  0.324626D+00           1.0000000
            S   1   1.00
                  0.128132D+00           1.0000000
            P   4   1.00
                  0.482704D+02           0.829547D-02
                  0.110815D+02           0.596223D-01
                  0.326643D+01           0.227889D+00
                  0.111680D+01           0.500000D+00
            P   1   1.00
                  0.382049D+00           1.0000000
            P   1   1.00
                  0.121222D+00           1.0000000
            D   1   1.00
                  0.180000D+01           1.0000000
            D   1   1.00
                  0.550000D+00           1.0000000
            F   1   1.00
                  0.102000D+01           1.0000000
            ****
            -F     0
            S   7   1.00
                  0.174507D+05           0.655972D-03
                  0.261768D+04           0.506944D-02
                  0.595857D+03           0.259899D-01
                  0.168651D+03           0.100353D+00
                  0.546654D+02           0.284095D+00
                  0.193717D+02           0.500000D+00
                  0.706202D+01           0.370721D+00
            S   2   1.00
                  0.131197D+02          -0.101997D+00
                  0.145046D+01           0.500000D+00
            S   1   1.00
                  0.588255D+00           1.0000000
            S   1   1.00
                  0.227960D+00           1.0000000
            P   4   1.00
                  0.779407D+02           0.931135D-02
                  0.180425D+02           0.663964D-01
                  0.542342D+01           0.246386D+00
                  0.184876D+01           0.500000D+00
            P   1   1.00
                  0.617455D+00           1.0000000
            P   1   1.00
                  0.185496D+00           1.0000000
            D   1   1.00
                  0.280000D+01           1.0000000
            D   1   1.00
                  0.800000D+00           1.0000000
            F   1   1.00
                  0.120000D+01           1.0000000
            ****
            -Cl     0
            S   8   1.00
                  0.154272D+06           0.222473D-03
                  0.231232D+05           0.172590D-02
                  0.526257D+04           0.899286D-02
                  0.148995D+04           0.367724D-01
                  0.485417D+03           0.121446D+00
                  0.174634D+03           0.304148D+00
                  0.672393D+02           0.500000D+00
                  0.265780D+02           0.360252D+00
            S   3   1.00
                  0.131826D+03          -0.531330D-01
                  0.400703D+02          -0.233346D+00
                  0.789448D+01           0.500000D+00
            S   2   1.00
                  0.427711D+01           0.500000D+00
                  0.196233D+01           0.370517D+00
            S   1   1.00
                  0.520793D+00           1.0000000
            S   1   1.00
                  0.181633D+00           1.0000000
            P   7   1.00
                  0.124440D+04           0.988206D-03
                  0.295109D+03           0.829674D-02
                  0.947224D+02           0.430906D-01
                  0.352588D+02           0.148443D+00
                  0.144211D+02           0.344744D+00
                  0.610371D+01           0.500000D+00
                  0.258886D+01           0.348278D+00
            P   2   1.00
                  0.109447D+02          -0.196768D-01
                  0.104413D+01           0.500000D+00
            P   1   1.00
                  0.376184D+00           1.0000000
            P   1   1.00
                  0.120613D+00           1.0000000
            D   1   1.00
                  0.231000D+01           1.0000000
            D   1   1.00
                  0.520000D+00           1.0000000
            F   1   1.00
                  0.720000D+00           1.0000000
            ****
            -S     0
            S   8   1.00
                  0.134700D+06           0.226231D-03
                  0.201904D+05           0.175488D-02
                  0.459528D+04           0.914190D-02
                  0.130109D+04           0.373551D-01
                  0.423902D+03           0.123121D+00
                  0.152485D+03           0.306801D+00
                  0.586925D+02           0.500000D+00
                  0.231461D+02           0.354358D+00
            S   3   1.00
                  0.116327D+03          -0.491772D-01
                  0.352841D+02          -0.215962D+00
                  0.677831D+01           0.500000D+00
            S   2   1.00
                  0.360404D+01           0.500000D+00
                  0.164871D+01           0.366278D+00
            S   1   1.00
                  0.421821D+00           1.0000000
            S   1   1.00
                  0.147554D+00           1.0000000
            P   7   1.00
                  0.104863D+04           0.105273D-02
                  0.248717D+03           0.879338D-02
                  0.797887D+02           0.453358D-01
                  0.296023D+02           0.154476D+00
                  0.120627D+02           0.352366D+00
                  0.507628D+01           0.500000D+00
                  0.213375D+01           0.346429D+00
            P   2   1.00
                  0.928958D+01          -0.185932D-01
                  0.837819D+00           0.500000D+00
            P   1   1.00
                  0.301495D+00           1.0000000
            P   1   1.00
                  0.974740D-01           1.0000000
            D   1   1.00
                  0.210000D+01           1.0000000
            D   1   1.00
                  0.480000D+00           1.0000000
            F   1   1.00
                  0.660000D+00           1.0000000
            ****
            -Br     0
            S    10   1.00
                  0.233625D+07           0.532336D-04
                  0.349961D+06           0.413715D-03
                  0.796444D+05           0.217123D-02
                  0.225555D+05           0.910109D-02
                  0.735546D+04           0.323789D-01
                  0.265352D+04           0.988755D-01
                  0.103517D+04           0.248138D+00
                  0.422205D+03           0.474328D+00
                  0.180035D+03           0.500000D+00
                  0.793308D+02           0.187769D+00
            S    4   1.00
                  0.620834D+03          -0.226511D-01
                  0.190829D+03          -0.109497D+00
                  0.312505D+02           0.500000D+00
                  0.135270D+02           0.492812D+00
            S    2   1.00
                  0.216097D+02          -0.165418D+00
                  0.372566D+01           0.500000D+00
            S    1   1.00
                  0.169770D+01           1.0000000
            S    1   1.00
                  0.489332D+00           1.0000000
            S    1   1.00
                  0.175712D+00           1.0000000
            P    8   1.00
                  0.960829D+04           0.478974D-03
                  0.227618D+04           0.417853D-02
                  0.736723D+03           0.229315D-01
                  0.281579D+03           0.892653D-01
                  0.118395D+03           0.255288D+00
                  0.527481D+02           0.479074D+00
                  0.245098D+02           0.500000D+00
                  0.112009D+02           0.200944D+00
            P    4   1.00
                  0.587849D+02          -0.189674D-01
                  0.918962D+01           0.264104D+00
                  0.413895D+01           0.500000D+00
                  0.184225D+01           0.319316D+00
            P    1   1.00
                  0.713862D+00           1.0000000
            P    1   1.00
                  0.274232D+00           1.0000000
            P    1   1.00
                  0.944411D-01           1.0000000
            D    7   1.00
                  0.398470D+03           0.204066D-02
                  0.118967D+03           0.175171D-01
                  0.450197D+02           0.829708D-01
                  0.190320D+02           0.236284D+00
                  0.855686D+01           0.428468D+00
                  0.382950D+01           0.500000D+00
                  0.166291D+01           0.349360D+00
            D    1   1.00
                  0.672953D+00           1.0000000
            D    1   1.00
                  0.252000D+00           1.0000000
            F    1   1.00
                  0.530000D+00           1.0000000
            ****
            -Si     0
            S    8   1.00
                  0.996133D+05           0.235546D-03
                  0.149311D+05           0.182707D-02
                  0.339820D+04           0.951425D-02
                  0.962140D+03           0.388172D-01
                  0.313430D+03           0.127328D+00
                  0.112683D+03           0.313522D+00
                  0.433372D+02           0.500000D+00
                  0.170029D+02           0.340347D+00
            S    3   1.00
                  0.884208D+02          -0.404451D-01
                  0.266756D+02          -0.178059D+00
                  0.479640D+01           0.500000D+00
            S    2   1.00
                  0.239385D+01           0.500000D+00
                  0.108333D+01           0.338016D+00
            S    1   1.00
                  0.252420D+00           1.0000000
            S    1   1.00
                  0.891210D-01           1.0000000
            P    7   1.00
                  0.709901D+03           0.123028D-02
                  0.168426D+03           0.101366D-01
                  0.539946D+02           0.511840D-01
                  0.198646D+02           0.169967D+00
                  0.801369D+01           0.370717D+00
                  0.331870D+01           0.500000D+00
                  0.136112D+01           0.344128D+00
            P    2   1.00
                  0.622158D+01          -0.166609D-01
                  0.503049D+00           0.500000D+00
            P    1   1.00
                  0.179848D+00           1.0000000
            P    1   1.00
                  0.591912D-01           1.0000000
            D    1   1.00
                  0.168000D+01           1.0000000
            D    1   1.00
                  0.380000D+00           1.0000000
            F    1   1.00
                  0.540000D+00           1.0000000
            ****
            -P     0
            S    8   1.00
                  0.116416D+06           0.230715D-03
                  0.174500D+05           0.178960D-02
                  0.397149D+04           0.932116D-02
                  0.112447D+04           0.380591D-01
                  0.366347D+03           0.125148D+00
                  0.131757D+03           0.310022D+00
                  0.506988D+02           0.500000D+00
                  0.199436D+02           0.347528D+00
            S    3   1.00
                  0.101878D+03          -0.446755D-01
                  0.308249D+02          -0.196376D+00
                  0.573688D+01           0.500000D+00
            S    2   1.00
                  0.296868D+01           0.500000D+00
                  0.135315D+01           0.355098D+00
            S    1   1.00
                  0.332196D+00           1.0000000
            S    1   1.00
                  0.116229D+00           1.0000000
            P    7   1.00
                  0.873928D+03           0.112375D-02
                  0.207298D+03           0.933330D-02
                  0.664628D+02           0.477213D-01
                  0.245665D+02           0.160733D+00
                  0.996820D+01           0.359760D+00
                  0.416536D+01           0.500000D+00
                  0.173022D+01           0.346593D+00
            P    2   1.00
                  0.772530D+01          -0.175718D-01
                  0.657252D+00           0.500000D+00
            P    1   1.00
                  0.239903D+00           1.0000000
            P    1   1.00
                  0.800988D-01           1.0000000
            D    1   1.00
                  0.189000D+01           1.0000000
            D    1   1.00
                  0.430000D+00           1.0000000
            F    1   1.00
                  0.600000D+00           1.0000000
            ****
            
 Initial command:
 /usr/local/apps/g16_b01_avx/g16/l1.exe "/wrk/irikura/Gau-460132.inp" -scrdir="/wrk/irikura/"
 Entering Link 1 = /usr/local/apps/g16_b01_avx/g16/l1.exe PID=    460134.
  
 Copyright (c) 1988-2017, Gaussian, Inc.  All Rights Reserved.
  
 This is part of the Gaussian(R) 16 program.  It is based on
 the Gaussian(R) 09 system (copyright 2009, Gaussian, Inc.),
 the Gaussian(R) 03 system (copyright 2003, Gaussian, Inc.),
 the Gaussian(R) 98 system (copyright 1998, Gaussian, Inc.),
 the Gaussian(R) 94 system (copyright 1995, Gaussian, Inc.),
 the Gaussian 92(TM) system (copyright 1992, Gaussian, Inc.),
 the Gaussian 90(TM) system (copyright 1990, Gaussian, Inc.),
 the Gaussian 88(TM) system (copyright 1988, Gaussian, Inc.),
 the Gaussian 86(TM) system (copyright 1986, Carnegie Mellon
 University), and the Gaussian 82(TM) system (copyright 1983,
 Carnegie Mellon University). Gaussian is a federally registered
 trademark of Gaussian, Inc.
  
 This software contains proprietary and confidential information,
 including trade secrets, belonging to Gaussian, Inc.
  
 This software is provided under written license and may be
 used, copied, transmitted, or stored only in accord with that
 written license.
  
 The following legend is applicable only to US Government
 contracts under FAR:
  
                    RESTRICTED RIGHTS LEGEND
  
 Use, reproduction and disclosure by the US Government is
 subject to restrictions as set forth in subparagraphs (a)
 and (c) of the Commercial Computer Software - Restricted
 Rights clause in FAR 52.227-19.
  
 Gaussian, Inc.
 340 Quinnipiac St., Bldg. 40, Wallingford CT 06492
  
  
 ---------------------------------------------------------------
 Warning -- This program may not be used in any manner that
 competes with the business of Gaussian, Inc. or will provide
 assistance to any competitor of Gaussian, Inc.  The licensee
 of this program is prohibited from giving any competitor of
 Gaussian, Inc. access to this program.  By using this program,
 the user acknowledges that Gaussian, Inc. is engaged in the
 business of creating and licensing software in the field of
 computational chemistry and represents and warrants to the
 licensee that it is not a competitor of Gaussian, Inc. and that
 it will not use this program in any manner prohibited above.
 ---------------------------------------------------------------
  

 Cite this work as:
 Gaussian 16, Revision B.01,
 M. J. Frisch, G. W. Trucks, H. B. Schlegel, G. E. Scuseria, 
 M. A. Robb, J. R. Cheeseman, G. Scalmani, V. Barone, 
 G. A. Petersson, H. Nakatsuji, X. Li, M. Caricato, A. V. Marenich, 
 J. Bloino, B. G. Janesko, R. Gomperts, B. Mennucci, H. P. Hratchian, 
 J. V. Ortiz, A. F. Izmaylov, J. L. Sonnenberg, D. Williams-Young, 
 F. Ding, F. Lipparini, F. Egidi, J. Goings, B. Peng, A. Petrone, 
 T. Henderson, D. Ranasinghe, V. G. Zakrzewski, J. Gao, N. Rega, 
 G. Zheng, W. Liang, M. Hada, M. Ehara, K. Toyota, R. Fukuda, 
 J. Hasegawa, M. Ishida, T. Nakajima, Y. Honda, O. Kitao, H. Nakai, 
 T. Vreven, K. Throssell, J. A. Montgomery, Jr., J. E. Peralta, 
 F. Ogliaro, M. J. Bearpark, J. J. Heyd, E. N. Brothers, K. N. Kudin, 
 V. N. Staroverov, T. A. Keith, R. Kobayashi, J. Normand, 
 K. Raghavachari, A. P. Rendell, J. C. Burant, S. S. Iyengar, 
 J. Tomasi, M. Cossi, J. M. Millam, M. Klene, C. Adamo, R. Cammi, 
 J. W. Ochterski, R. L. Martin, K. Morokuma, O. Farkas, 
 J. B. Foresman, and D. J. Fox, Gaussian, Inc., Wallingford CT, 2016.
 
 ******************************************
 Gaussian 16:  ES64L-G16RevB.01 20-Dec-2017
                30-Sep-2023 
 ******************************************
 %chk=neohexane.chk
 %mem=1000mw
 %nprocs=4
 Will use up to    4 processors via shared memory.
 ---------------------------------------
 # b3lyp/gen opt freq CPHF(Grid=OneStep)
 ---------------------------------------
 1/18=20,19=15,26=3,38=1/1,3;
 2/9=110,12=2,17=6,18=5,40=1/2;
 3/5=7,11=2,25=1,30=1,71=1,74=-5/1,2,3;
 4//1;
 5/5=2,38=5/2;
 6/7=2,8=2,9=2,10=2,28=1/1;
 7//1,2,3,16;
 1/18=20,19=15,26=3/3(2);
 2/9=110/2;
 99//99;
 2/9=110/2;
 3/5=7,6=1,11=2,25=1,30=1,71=1,74=-5,82=7/1,2,3;
 4/5=5,16=3,69=1/1;
 5/5=2,38=5/2;
 7//1,2,3,16;
 1/18=20,19=15,26=3/3(-5);
 2/9=110/2;
 6/7=2,8=2,9=2,10=2,19=2,28=1/1;
 99/9=1/99;
 ------------------------
 neohexane, B3LYP/pcseg-2
 ------------------------
 Symbolic Z-matrix:
 Charge =  0 Multiplicity = 1
 C                     1.90994  -1.06831   0. 
 C                     1.17016   0.27025   0. 
 C                    -0.37708   0.21782   0. 
 C                    -0.89973   1.66363   0. 
 C                    -0.89973  -0.49872   1.2553 
 C                    -0.89973  -0.49872  -1.2553 
 H                    -1.99122   1.68627   0. 
 H                     2.98832  -0.90342   0. 
 H                    -0.53009  -0.0193    2.16431 
 H                    -0.53009  -0.0193   -2.16431 
 H                    -0.59673  -1.54579   1.28146 
 H                    -0.59673  -1.54579  -1.28146 
 H                    -1.99068  -0.47312   1.28662 
 H                    -1.99068  -0.47312  -1.28662 
 H                     1.67445  -1.66599   0.88104 
 H                     1.67445  -1.66599  -0.88104 
 H                     1.48766   0.84812   0.87341 
 H                     1.48766   0.84812  -0.87341 
 H                    -0.55465   2.20679   0.88215 
 H                    -0.55465   2.20679  -0.88215 
 

 GradGradGradGradGradGradGradGradGradGradGradGradGradGradGradGradGradGrad
 Berny optimization.
 Initialization pass.
                           ----------------------------
                           !    Initial Parameters    !
                           ! (Angstroms and Degrees)  !
 --------------------------                            --------------------------
 ! Name  Definition              Value          Derivative Info.                !
 --------------------------------------------------------------------------------
 ! R1    R(1,2)                  1.5294         estimate D2E/DX2                !
 ! R2    R(1,8)                  1.0909         estimate D2E/DX2                !
 ! R3    R(1,15)                 1.0904         estimate D2E/DX2                !
 ! R4    R(1,16)                 1.0904         estimate D2E/DX2                !
 ! R5    R(2,3)                  1.5481         estimate D2E/DX2                !
 ! R6    R(2,17)                 1.0943         estimate D2E/DX2                !
 ! R7    R(2,18)                 1.0943         estimate D2E/DX2                !
 ! R8    R(3,4)                  1.5374         estimate D2E/DX2                !
 ! R9    R(3,5)                  1.537          estimate D2E/DX2                !
 ! R10   R(3,6)                  1.537          estimate D2E/DX2                !
 ! R11   R(4,7)                  1.0917         estimate D2E/DX2                !
 ! R12   R(4,19)                 1.0919         estimate D2E/DX2                !
 ! R13   R(4,20)                 1.0919         estimate D2E/DX2                !
 ! R14   R(5,9)                  1.0921         estimate D2E/DX2                !
 ! R15   R(5,11)                 1.0903         estimate D2E/DX2                !
 ! R16   R(5,13)                 1.0917         estimate D2E/DX2                !
 ! R17   R(6,10)                 1.0921         estimate D2E/DX2                !
 ! R18   R(6,12)                 1.0903         estimate D2E/DX2                !
 ! R19   R(6,14)                 1.0917         estimate D2E/DX2                !
 ! A1    A(2,1,8)              110.2351         estimate D2E/DX2                !
 ! A2    A(2,1,15)             112.0421         estimate D2E/DX2                !
 ! A3    A(2,1,16)             112.0421         estimate D2E/DX2                !
 ! A4    A(8,1,15)             107.2377         estimate D2E/DX2                !
 ! A5    A(8,1,16)             107.2377         estimate D2E/DX2                !
 ! A6    A(15,1,16)            107.805          estimate D2E/DX2                !
 ! A7    A(1,2,3)              116.9875         estimate D2E/DX2                !
 ! A8    A(1,2,17)             108.7735         estimate D2E/DX2                !
 ! A9    A(1,2,18)             108.7735         estimate D2E/DX2                !
 ! A10   A(3,2,17)             107.9295         estimate D2E/DX2                !
 ! A11   A(3,2,18)             107.9295         estimate D2E/DX2                !
 ! A12   A(17,2,18)            105.9003         estimate D2E/DX2                !
 ! A13   A(2,3,4)              107.9335         estimate D2E/DX2                !
 ! A14   A(2,3,5)              110.8324         estimate D2E/DX2                !
 ! A15   A(2,3,6)              110.8324         estimate D2E/DX2                !
 ! A16   A(4,3,5)              108.8339         estimate D2E/DX2                !
 ! A17   A(4,3,6)              108.8339         estimate D2E/DX2                !
 ! A18   A(5,3,6)              109.5162         estimate D2E/DX2                !
 ! A19   A(3,4,7)              111.0629         estimate D2E/DX2                !
 ! A20   A(3,4,19)             111.1233         estimate D2E/DX2                !
 ! A21   A(3,4,20)             111.1233         estimate D2E/DX2                !
 ! A22   A(7,4,19)             107.7965         estimate D2E/DX2                !
 ! A23   A(7,4,20)             107.7965         estimate D2E/DX2                !
 ! A24   A(19,4,20)            107.7803         estimate D2E/DX2                !
 ! A25   A(3,5,9)              111.1029         estimate D2E/DX2                !
 ! A26   A(3,5,11)             111.888          estimate D2E/DX2                !
 ! A27   A(3,5,13)             110.6287         estimate D2E/DX2                !
 ! A28   A(9,5,11)             107.9102         estimate D2E/DX2                !
 ! A29   A(9,5,13)             107.7009         estimate D2E/DX2                !
 ! A30   A(11,5,13)            107.4289         estimate D2E/DX2                !
 ! A31   A(3,6,10)             111.1029         estimate D2E/DX2                !
 ! A32   A(3,6,12)             111.888          estimate D2E/DX2                !
 ! A33   A(3,6,14)             110.6287         estimate D2E/DX2                !
 ! A34   A(10,6,12)            107.9102         estimate D2E/DX2                !
 ! A35   A(10,6,14)            107.7009         estimate D2E/DX2                !
 ! A36   A(12,6,14)            107.4289         estimate D2E/DX2                !
 ! D1    D(8,1,2,3)            180.0            estimate D2E/DX2                !
 ! D2    D(8,1,2,17)           -57.4539         estimate D2E/DX2                !
 ! D3    D(8,1,2,18)            57.4539         estimate D2E/DX2                !
 ! D4    D(15,1,2,3)           -60.6605         estimate D2E/DX2                !
 ! D5    D(15,1,2,17)           61.8856         estimate D2E/DX2                !
 ! D6    D(15,1,2,18)          176.7933         estimate D2E/DX2                !
 ! D7    D(16,1,2,3)            60.6605         estimate D2E/DX2                !
 ! D8    D(16,1,2,17)         -176.7933         estimate D2E/DX2                !
 ! D9    D(16,1,2,18)          -61.8856         estimate D2E/DX2                !
 ! D10   D(1,2,3,4)            180.0            estimate D2E/DX2                !
 ! D11   D(1,2,3,5)             60.9093         estimate D2E/DX2                !
 ! D12   D(1,2,3,6)            -60.9093         estimate D2E/DX2                !
 ! D13   D(17,2,3,4)            57.0188         estimate D2E/DX2                !
 ! D14   D(17,2,3,5)           -62.0719         estimate D2E/DX2                !
 ! D15   D(17,2,3,6)           176.1095         estimate D2E/DX2                !
 ! D16   D(18,2,3,4)           -57.0188         estimate D2E/DX2                !
 ! D17   D(18,2,3,5)          -176.1095         estimate D2E/DX2                !
 ! D18   D(18,2,3,6)            62.0719         estimate D2E/DX2                !
 ! D19   D(2,3,4,7)            180.0            estimate D2E/DX2                !
 ! D20   D(2,3,4,19)           -60.0066         estimate D2E/DX2                !
 ! D21   D(2,3,4,20)            60.0066         estimate D2E/DX2                !
 ! D22   D(5,3,4,7)            -59.6467         estimate D2E/DX2                !
 ! D23   D(5,3,4,19)            60.3467         estimate D2E/DX2                !
 ! D24   D(5,3,4,20)          -179.64           estimate D2E/DX2                !
 ! D25   D(6,3,4,7)             59.6467         estimate D2E/DX2                !
 ! D26   D(6,3,4,19)           179.64           estimate D2E/DX2                !
 ! D27   D(6,3,4,20)           -60.3467         estimate D2E/DX2                !
 ! D28   D(2,3,5,9)             56.5073         estimate D2E/DX2                !
 ! D29   D(2,3,5,11)           -64.1757         estimate D2E/DX2                !
 ! D30   D(2,3,5,13)           176.079          estimate D2E/DX2                !
 ! D31   D(4,3,5,9)            -62.0395         estimate D2E/DX2                !
 ! D32   D(4,3,5,11)           177.2775         estimate D2E/DX2                !
 ! D33   D(4,3,5,13)            57.5322         estimate D2E/DX2                !
 ! D34   D(6,3,5,9)            179.0938         estimate D2E/DX2                !
 ! D35   D(6,3,5,11)            58.4108         estimate D2E/DX2                !
 ! D36   D(6,3,5,13)           -61.3345         estimate D2E/DX2                !
 ! D37   D(2,3,6,10)           -56.5073         estimate D2E/DX2                !
 ! D38   D(2,3,6,12)            64.1757         estimate D2E/DX2                !
 ! D39   D(2,3,6,14)          -176.079          estimate D2E/DX2                !
 ! D40   D(4,3,6,10)            62.0395         estimate D2E/DX2                !
 ! D41   D(4,3,6,12)          -177.2775         estimate D2E/DX2                !
 ! D42   D(4,3,6,14)           -57.5322         estimate D2E/DX2                !
 ! D43   D(5,3,6,10)          -179.0938         estimate D2E/DX2                !
 ! D44   D(5,3,6,12)           -58.4108         estimate D2E/DX2                !
 ! D45   D(5,3,6,14)            61.3345         estimate D2E/DX2                !
 --------------------------------------------------------------------------------
 Trust Radius=3.00D-01 FncErr=1.00D-07 GrdErr=1.00D-06 EigMax=2.50D+02 EigMin=1.00D-04
 Number of steps in this run=    110 maximum allowed number of steps=    120.
 GradGradGradGradGradGradGradGradGradGradGradGradGradGradGradGradGradGrad

                          Input orientation:                          
 ---------------------------------------------------------------------
 Center     Atomic      Atomic             Coordinates (Angstroms)
 Number     Number       Type             X           Y           Z
 ---------------------------------------------------------------------
      1          6           0        1.909939   -1.068306    0.000000
      2          6           0        1.170157    0.270247    0.000000
      3          6           0       -0.377084    0.217818    0.000000
      4          6           0       -0.899726    1.663627    0.000000
      5          6           0       -0.899726   -0.498715    1.255297
      6          6           0       -0.899726   -0.498715   -1.255297
      7          1           0       -1.991221    1.686273    0.000000
      8          1           0        2.988323   -0.903422    0.000000
      9          1           0       -0.530090   -0.019297    2.164312
     10          1           0       -0.530090   -0.019297   -2.164312
     11          1           0       -0.596731   -1.545787    1.281459
     12          1           0       -0.596731   -1.545787   -1.281459
     13          1           0       -1.990684   -0.473122    1.286617
     14          1           0       -1.990684   -0.473122   -1.286617
     15          1           0        1.674453   -1.665993    0.881037
     16          1           0        1.674453   -1.665993   -0.881037
     17          1           0        1.487658    0.848119    0.873405
     18          1           0        1.487658    0.848119   -0.873405
     19          1           0       -0.554654    2.206788    0.882147
     20          1           0       -0.554654    2.206788   -0.882147
 ---------------------------------------------------------------------
                    Distance matrix (angstroms):
                    1          2          3          4          5
     1  C    0.000000
     2  C    1.529379   0.000000
     3  C    2.623850   1.548129   0.000000
     4  C    3.918887   2.495180   1.537374   0.000000
     5  C    3.129604   2.539978   1.536992   2.500299   0.000000
     6  C    3.129604   2.539978   1.536992   2.500299   2.510594
     7  H    4.775642   3.464021   2.182155   1.091730   2.746144
     8  H    1.090916   2.164076   3.547273   4.659041   4.105665
     9  H    3.426136   2.767476   2.182632   2.766426   1.092145
    10  H    3.426136   2.767476   2.182632   2.766426   3.472780
    11  H    2.855437   2.839368   2.191046   3.469046   1.090344
    12  H    2.855437   2.839368   2.191046   3.469046   2.761032
    13  H    4.150239   3.492692   2.176347   2.722365   1.091708
    14  H    4.150239   3.492692   2.176347   2.722365   2.766256
    15  H    1.090371   2.186222   2.921262   4.299883   2.851141
    16  H    1.090371   2.186222   2.921262   4.299883   3.543001
    17  H    2.147986   1.094340   2.153457   2.669736   2.767563
    18  H    2.147986   1.094340   2.153457   2.669736   3.470582
    19  H    4.192689   2.739224   2.183052   1.091917   2.752828
    20  H    4.192689   2.739224   2.183052   1.091917   3.465182
                    6          7          8          9         10
     6  C    0.000000
     7  H    2.746144   0.000000
     8  H    4.105665   5.612698   0.000000
     9  H    3.472780   3.118993   4.224352   0.000000
    10  H    1.092145   3.118993   4.224352   4.328624   0.000000
    11  H    2.761032   3.746058   3.861008   1.764665   3.769344
    12  H    1.090344   3.746058   3.861008   3.769344   1.764665
    13  H    2.766256   2.513637   5.160528   1.763417   3.774679
    14  H    1.091708   2.513637   5.160528   3.774679   1.763417
    15  H    3.543001   5.044906   1.756131   3.036184   4.104360
    16  H    2.851141   5.044906   1.756131   4.104360   3.036184
    17  H    3.470582   3.683468   2.466319   2.547579   3.748525
    18  H    2.767563   3.683468   2.466319   3.748525   2.547579
    19  H    3.465182   1.764325   4.796277   2.569047   3.773191
    20  H    2.752828   1.764325   4.796277   3.773191   2.569047
                   11         12         13         14         15
    11  H    0.000000
    12  H    2.562918   0.000000
    13  H    1.758904   3.112672   0.000000
    14  H    3.112672   1.758904   2.573234   0.000000
    15  H    2.309343   3.138330   3.875650   4.422092   0.000000
    16  H    3.138330   2.309343   4.422092   3.875650   1.762074
    17  H    3.200308   3.836522   3.743699   4.302352   2.521053
    18  H    3.836522   3.200308   4.302352   3.743699   3.071436
    19  H    3.773995   4.331833   3.067197   3.734654   4.468484
    20  H    4.331833   3.773995   3.734654   3.067197   4.803766
                   16         17         18         19         20
    16  H    0.000000
    17  H    3.071436   0.000000
    18  H    2.521053   1.746810   0.000000
    19  H    4.803766   2.452977   3.016452   0.000000
    20  H    4.468484   3.016452   2.452977   1.764294   0.000000
 Stoichiometry    C6H14
 Framework group  CS[SG(C4H2),X(C2H12)]
 Deg. of freedom    30
 Full point group                 CS      NOp   2
 Largest Abelian subgroup         CS      NOp   2
 Largest concise Abelian subgroup CS      NOp   2
                         Standard orientation:                         
 ---------------------------------------------------------------------
 Center     Atomic      Atomic             Coordinates (Angstroms)
 Number     Number       Type             X           Y           Z
 ---------------------------------------------------------------------
      1          6           0        1.909939   -1.068306    0.000000
      2          6           0        1.170157    0.270247    0.000000
      3          6           0       -0.377084    0.217818    0.000000
      4          6           0       -0.899726    1.663627    0.000000
      5          6           0       -0.899726   -0.498715    1.255297
      6          6           0       -0.899726   -0.498715   -1.255297
      7          1           0       -1.991221    1.686273    0.000000
      8          1           0        2.988323   -0.903422    0.000000
      9          1           0       -0.530090   -0.019297    2.164312
     10          1           0       -0.530090   -0.019297   -2.164312
     11          1           0       -0.596731   -1.545787    1.281459
     12          1           0       -0.596731   -1.545787   -1.281459
     13          1           0       -1.990684   -0.473122    1.286617
     14          1           0       -1.990684   -0.473122   -1.286617
     15          1           0        1.674453   -1.665993    0.881037
     16          1           0        1.674453   -1.665993   -0.881037
     17          1           0        1.487658    0.848119    0.873405
     18          1           0        1.487658    0.848119   -0.873405
     19          1           0       -0.554654    2.206788    0.882147
     20          1           0       -0.554654    2.206788   -0.882147
 ---------------------------------------------------------------------
 Rotational constants (GHZ):           4.2876336           2.4837175           2.4750377
 General basis read from cards:  (5D, 7F)
 There are   243 symmetry adapted cartesian basis functions of A'  symmetry.
 There are   177 symmetry adapted cartesian basis functions of A"  symmetry.
 There are   214 symmetry adapted basis functions of A'  symmetry.
 There are   162 symmetry adapted basis functions of A"  symmetry.
   376 basis functions,   558 primitive gaussians,   420 cartesian basis functions
    25 alpha electrons       25 beta electrons
       nuclear repulsion energy       265.7367917331 Hartrees.
 NAtoms=   20 NActive=   20 NUniq=   13 SFac= 2.37D+00 NAtFMM=   60 NAOKFM=F Big=F
 Integral buffers will be    131072 words long.
 Raffenetti 2 integral format.
 Two-electron integral symmetry is turned on.
 One-electron integrals computed using PRISM.
 NBasis=   376 RedAO= T EigKep=  2.12D-04  NBF=   214   162
 NBsUse=   376 1.00D-06 EigRej= -1.00D+00 NBFU=   214   162
 ExpMin= 7.42D-02 ExpMax= 7.32D+03 ExpMxC= 2.50D+02 IAcc=3 IRadAn=         5 AccDes= 0.00D+00
 Harris functional with IExCor=  402 and IRadAn=       5 diagonalized for initial guess.
 HarFok:  IExCor=  402 AccDes= 0.00D+00 IRadAn=         5 IDoV= 1 UseB2=F ITyADJ=14
 ICtDFT=  3500011 ScaDFX=  1.000000  1.000000  1.000000  1.000000
 FoFCou: FMM=F IPFlag=           0 FMFlag=      100000 FMFlg1=           0
         NFxFlg=           0 DoJE=T BraDBF=F KetDBF=T FulRan=T
         wScrn=  0.000000 ICntrl=       500 IOpCl=  0 I1Cent=   200000004 NGrid=           0
         NMat0=    1 NMatS0=      1 NMatT0=    0 NMatD0=    1 NMtDS0=    0 NMtDT0=    0
 Petite list used in FoFCou.
 Initial guess orbital symmetries:
       Occupied  (A') (A") (A') (A') (A') (A') (A') (A') (A") (A')
                 (A') (A') (A') (A") (A') (A") (A') (A') (A") (A')
                 (A") (A") (A') (A") (A')
       Virtual   (A') (A') (A") (A') (A') (A") (A') (A') (A") (A')
                 (A') (A') (A") (A') (A") (A") (A') (A") (A') (A')
                 (A") (A") (A') (A') (A") (A') (A') (A") (A') (A')
                 (A') (A") (A') (A") (A') (A") (A') (A') (A") (A")
                 (A') (A') (A") (A') (A') (A') (A") (A") (A") (A')
                 (A') (A') (A') (A') (A") (A') (A') (A") (A') (A")
                 (A') (A") (A') (A") (A') (A') (A") (A') (A") (A")
                 (A") (A') (A') (A") (A') (A") (A") (A') (A") (A')
                 (A") (A') (A') (A') (A") (A") (A") (A") (A') (A')
                 (A") (A') (A") (A') (A') (A") (A") (A') (A') (A')
                 (A') (A') (A') (A") (A') (A") (A") (A') (A') (A')
                 (A") (A') (A') (A') (A") (A') (A") (A") (A') (A")
                 (A') (A") (A") (A') (A") (A') (A") (A') (A') (A')
                 (A") (A') (A") (A') (A') (A") (A') (A") (A') (A")
                 (A') (A") (A') (A') (A") (A') (A') (A') (A') (A")
                 (A') (A') (A") (A") (A') (A') (A") (A') (A") (A')
                 (A") (A') (A') (A') (A") (A') (A') (A') (A") (A")
                 (A') (A") (A") (A') (A") (A') (A") (A") (A") (A')
                 (A') (A') (A") (A') (A") (A') (A") (A") (A') (A')
                 (A') (A") (A") (A') (A") (A') (A') (A") (A") (A")
                 (A') (A") (A') (A') (A") (A") (A') (A") (A') (A")
                 (A') (A") (A") (A') (A") (A') (A") (A') (A') (A")
                 (A") (A') (A") (A') (A") (A') (A') (A") (A') (A")
                 (A') (A') (A") (A') (A') (A") (A') (A") (A') (A")
                 (A') (A') (A") (A") (A') (A') (A") (A') (A") (A')
                 (A") (A') (A") (A') (A") (A') (A') (A") (A') (A")
                 (A') (A') (A") (A') (A") (A') (A") (A') (A') (A')
                 (A") (A") (A') (A') (A") (A') (A") (A') (A") (A')
                 (A") (A') (A') (A") (A") (A') (A") (A') (A') (A')
                 (A") (A') (A') (A") (A') (A") (A') (A') (A") (A")
                 (A") (A') (A') (A') (A") (A') (A") (A') (A") (A')
                 (A") (A") (A") (A') (A') (A") (A") (A') (A") (A')
                 (A") (A') (A') (A') (A") (A') (A") (A') (A') (A")
                 (A') (A') (A") (A') (A") (A') (A") (A') (A") (A')
                 (A") (A') (A') (A") (A") (A') (A") (A") (A') (A')
                 (A')
 The electronic state of the initial guess is 1-A'.
 Requested convergence on RMS density matrix=1.00D-08 within 128 cycles.
 Requested convergence on MAX density matrix=1.00D-06.
 Requested convergence on             energy=1.00D-06.
 No special actions if energy rises.
 Integral accuracy reduced to 1.0D-05 until final iterations.
 Initial convergence to 1.0D-05 achieved.  Increase integral accuracy.
 SCF Done:  E(RB3LYP) =  -237.180531737     A.U. after   11 cycles
            NFock= 11  Conv=0.76D-08     -V/T= 2.0048

 **********************************************************************

            Population analysis using the SCF Density.

 **********************************************************************

 Orbital symmetries:
       Occupied  (A') (A') (A') (A") (A') (A') (A') (A') (A") (A')
                 (A') (A') (A') (A") (A') (A") (A') (A') (A") (A")
                 (A') (A") (A") (A') (A')
       Virtual   (A') (A') (A') (A") (A') (A") (A') (A") (A') (A')
                 (A') (A") (A') (A") (A") (A') (A') (A') (A") (A")
                 (A') (A') (A") (A") (A') (A') (A") (A') (A') (A")
                 (A') (A') (A") (A') (A') (A") (A') (A') (A") (A")
                 (A") (A') (A') (A') (A') (A") (A") (A') (A") (A')
                 (A') (A') (A') (A') (A") (A') (A') (A") (A') (A")
                 (A') (A") (A") (A') (A') (A") (A') (A") (A') (A")
                 (A') (A") (A") (A') (A") (A') (A") (A') (A") (A')
                 (A") (A') (A') (A") (A') (A") (A") (A") (A') (A")
                 (A') (A') (A") (A') (A') (A") (A') (A") (A') (A')
                 (A') (A') (A') (A") (A') (A") (A') (A") (A') (A")
                 (A') (A') (A') (A') (A") (A') (A") (A") (A') (A")
                 (A") (A') (A") (A') (A") (A') (A') (A") (A') (A")
                 (A') (A') (A") (A') (A') (A") (A') (A") (A') (A")
                 (A') (A") (A') (A') (A") (A') (A') (A') (A') (A")
                 (A') (A') (A") (A") (A') (A') (A') (A") (A") (A')
                 (A") (A') (A') (A') (A") (A') (A') (A') (A") (A")
                 (A') (A") (A") (A') (A") (A") (A') (A") (A") (A')
                 (A') (A') (A") (A') (A") (A') (A") (A") (A') (A')
                 (A') (A") (A") (A') (A") (A') (A') (A") (A") (A")
                 (A') (A') (A") (A') (A") (A") (A') (A') (A") (A")
                 (A") (A") (A') (A') (A") (A') (A") (A') (A') (A")
                 (A") (A') (A") (A') (A") (A') (A') (A") (A") (A')
                 (A') (A') (A") (A') (A') (A") (A') (A") (A') (A')
                 (A") (A") (A') (A') (A") (A') (A') (A") (A") (A')
                 (A") (A') (A") (A') (A") (A') (A") (A') (A") (A')
                 (A') (A") (A') (A') (A") (A") (A') (A') (A') (A')
                 (A") (A") (A') (A") (A') (A') (A") (A") (A') (A')
                 (A") (A') (A") (A') (A") (A') (A") (A') (A') (A')
                 (A") (A') (A") (A') (A') (A") (A') (A") (A') (A")
                 (A") (A') (A') (A') (A") (A') (A") (A') (A") (A')
                 (A") (A") (A") (A') (A') (A") (A") (A") (A') (A')
                 (A') (A") (A') (A') (A") (A') (A") (A') (A") (A')
                 (A') (A') (A") (A') (A") (A') (A") (A') (A") (A')
                 (A") (A') (A') (A") (A") (A') (A") (A") (A') (A')
                 (A')
 The electronic state is 1-A'.
 Alpha  occ. eigenvalues --  -10.17988 -10.16232 -10.15633 -10.15452 -10.15451
 Alpha  occ. eigenvalues --  -10.15440  -0.82466  -0.73768  -0.68432  -0.68416
 Alpha  occ. eigenvalues --   -0.62397  -0.52849  -0.46040  -0.45917  -0.43877
 Alpha  occ. eigenvalues --   -0.42513  -0.40098  -0.38377  -0.37844  -0.36478
 Alpha  occ. eigenvalues --   -0.35972  -0.34575  -0.31887  -0.31771  -0.31130
 Alpha virt. eigenvalues --    0.00948   0.03622   0.04559   0.04617   0.06334
 Alpha virt. eigenvalues --    0.06548   0.06848   0.08678   0.08791   0.10050
 Alpha virt. eigenvalues --    0.11226   0.11984   0.12036   0.12725   0.14127
 Alpha virt. eigenvalues --    0.14238   0.16333   0.16448   0.16697   0.19778
 Alpha virt. eigenvalues --    0.19842   0.22288   0.22299   0.26398   0.26584
 Alpha virt. eigenvalues --    0.27379   0.27534   0.27995   0.30326   0.32036
 Alpha virt. eigenvalues --    0.32484   0.33067   0.33434   0.33917   0.34754
 Alpha virt. eigenvalues --    0.34876   0.36115   0.36965   0.37061   0.37605
 Alpha virt. eigenvalues --    0.38214   0.38370   0.38628   0.39419   0.39825
 Alpha virt. eigenvalues --    0.40678   0.41225   0.42246   0.44736   0.46209
 Alpha virt. eigenvalues --    0.48113   0.50950   0.55699   0.61200   0.63172
 Alpha virt. eigenvalues --    0.63184   0.64272   0.72397   0.74516   0.75013
 Alpha virt. eigenvalues --    0.78886   0.80202   0.83323   0.83405   0.85005
 Alpha virt. eigenvalues --    0.87109   0.87271   0.91608   0.91796   0.95225
 Alpha virt. eigenvalues --    0.96585   0.96769   0.98327   0.98462   0.99791
 Alpha virt. eigenvalues --    1.01200   1.02226   1.02658   1.03212   1.04530
 Alpha virt. eigenvalues --    1.04759   1.06093   1.07465   1.08470   1.09091
 Alpha virt. eigenvalues --    1.10677   1.11497   1.12521   1.13325   1.16942
 Alpha virt. eigenvalues --    1.17713   1.18978   1.21601   1.22180   1.23544
 Alpha virt. eigenvalues --    1.25051   1.27351   1.27608   1.28019   1.30153
 Alpha virt. eigenvalues --    1.34885   1.35514   1.36236   1.36670   1.37778
 Alpha virt. eigenvalues --    1.39776   1.43176   1.43412   1.44998   1.47798
 Alpha virt. eigenvalues --    1.48605   1.50427   1.53143   1.54927   1.56256
 Alpha virt. eigenvalues --    1.58332   1.61742   1.63448   1.68336   1.68410
 Alpha virt. eigenvalues --    1.71804   1.72331   1.74696   1.76940   1.77780
 Alpha virt. eigenvalues --    1.79263   1.82430   1.82535   1.83558   1.84378
 Alpha virt. eigenvalues --    1.84639   1.86049   1.88968   1.91043   1.93198
 Alpha virt. eigenvalues --    1.93514   1.95172   2.02040   2.03260   2.04517
 Alpha virt. eigenvalues --    2.05561   2.08211   2.09688   2.12359   2.24983
 Alpha virt. eigenvalues --    2.27495   2.27820   2.29295   2.30335   2.30941
 Alpha virt. eigenvalues --    2.31275   2.39512   2.47598   2.51877   2.54175
 Alpha virt. eigenvalues --    2.55157   2.58022   2.58318   2.61484   2.64819
 Alpha virt. eigenvalues --    2.72799   2.77636   2.92761   3.02288   3.02342
 Alpha virt. eigenvalues --    3.06522   3.09028   3.13631   3.16717   3.17822
 Alpha virt. eigenvalues --    3.18450   3.21136   3.23311   3.25534   3.29681
 Alpha virt. eigenvalues --    3.29832   3.29892   3.30777   3.33739   3.35053
 Alpha virt. eigenvalues --    3.37255   3.40358   3.44000   3.46055   3.46777
 Alpha virt. eigenvalues --    3.49498   3.50421   3.52746   3.53728   3.58162
 Alpha virt. eigenvalues --    3.58516   3.59333   3.62754   3.63394   3.67936
 Alpha virt. eigenvalues --    3.69090   3.74269   3.77330   3.78534   3.80133
 Alpha virt. eigenvalues --    3.83578   3.83908   3.85246   3.85743   3.85973
 Alpha virt. eigenvalues --    3.87653   3.88339   3.88502   3.89079   3.89595
 Alpha virt. eigenvalues --    3.90802   3.91803   3.92003   3.92756   3.97898
 Alpha virt. eigenvalues --    4.00114   4.01145   4.02556   4.13376   4.14639
 Alpha virt. eigenvalues --    4.15129   4.16978   4.18227   4.20005   4.21698
 Alpha virt. eigenvalues --    4.23570   4.27157   4.27380   4.28517   4.29151
 Alpha virt. eigenvalues --    4.32508   4.33653   4.35775   4.37274   4.38653
 Alpha virt. eigenvalues --    4.39758   4.42585   4.44010   4.46993   4.47769
 Alpha virt. eigenvalues --    4.48344   4.51315   4.51732   4.53588   4.54491
 Alpha virt. eigenvalues --    4.55673   4.57999   4.58262   4.59312   4.59733
 Alpha virt. eigenvalues --    4.60490   4.61867   4.62946   4.63937   4.65491
 Alpha virt. eigenvalues --    4.66345   4.67350   4.67506   4.68612   4.69167
 Alpha virt. eigenvalues --    4.69922   4.70217   4.71951   4.73601   4.75528
 Alpha virt. eigenvalues --    4.77793   4.79143   4.80478   4.82531   4.83699
 Alpha virt. eigenvalues --    4.83879   4.84242   4.87279   4.87997   4.88542
 Alpha virt. eigenvalues --    4.91228   4.91557   4.93973   4.95486   5.01593
 Alpha virt. eigenvalues --    5.03913   5.06922   5.09255   5.10463   5.10700
 Alpha virt. eigenvalues --    5.10965   5.13864   5.14189   5.17228   5.21266
 Alpha virt. eigenvalues --    5.21526   5.24426   5.27839   5.29174   5.37715
 Alpha virt. eigenvalues --    5.38945   5.42219   5.43812   5.43830   5.45559
 Alpha virt. eigenvalues --    5.46053   5.49080   5.49746   5.52559   5.52642
 Alpha virt. eigenvalues --    5.56832   5.57068   5.60608   5.67281   5.67733
 Alpha virt. eigenvalues --    5.72884   5.75030   5.76165   5.76708   5.77763
 Alpha virt. eigenvalues --    5.80177   5.81035   5.83379   5.83528   5.84506
 Alpha virt. eigenvalues --    5.86397   5.87090   5.88627   5.89799   5.90257
 Alpha virt. eigenvalues --    5.91577   5.92365   5.93272   5.96983   5.97324
 Alpha virt. eigenvalues --    5.98638   5.99433   6.00551   6.02216   6.04785
 Alpha virt. eigenvalues --    6.07778   6.08460   6.13010   6.14100   6.16602
 Alpha virt. eigenvalues --    6.18072   6.20796   6.22898   6.24499   6.25788
 Alpha virt. eigenvalues --    6.29120   6.31329   6.74310   6.86487   7.49757
 Alpha virt. eigenvalues --    7.62721
          Condensed to atoms (all electrons):
               1          2          3          4          5          6
     1  C    4.614995   0.295414  -0.033435   0.015473  -0.009795  -0.009795
     2  C    0.295414   4.894044   0.329007  -0.087609  -0.067423  -0.067423
     3  C   -0.033435   0.329007   4.954403   0.355125   0.345285   0.345285
     4  C    0.015473  -0.087609   0.355125   4.718781  -0.070309  -0.070309
     5  C   -0.009795  -0.067423   0.345285  -0.070309   4.720764  -0.076695
     6  C   -0.009795  -0.067423   0.345285  -0.070309  -0.076695   4.720764
     7  H   -0.001004   0.015473  -0.032859   0.425752  -0.010566  -0.010566
     8  H    0.425764  -0.035442   0.013285  -0.000710  -0.000666  -0.000666
     9  H   -0.002037  -0.008536  -0.031761  -0.009074   0.422236   0.013727
    10  H   -0.002037  -0.008536  -0.031761  -0.009074   0.013727   0.422236
    11  H   -0.000004  -0.011007  -0.030807   0.013389   0.428115  -0.010021
    12  H   -0.000004  -0.011007  -0.030807   0.013389  -0.010021   0.428115
    13  H   -0.000147   0.013650  -0.030254  -0.011435   0.427258  -0.010468
    14  H   -0.000147   0.013650  -0.030254  -0.011435  -0.010468   0.427258
    15  H    0.430256  -0.040349  -0.009744  -0.000307   0.005009  -0.003330
    16  H    0.430256  -0.040349  -0.009744  -0.000307  -0.003330   0.005009
    17  H   -0.040857   0.444394  -0.042268  -0.008997  -0.014180   0.014006
    18  H   -0.040857   0.444394  -0.042268  -0.008997   0.014006  -0.014180
    19  H   -0.000006  -0.011497  -0.030787   0.425624  -0.010958   0.013931
    20  H   -0.000006  -0.011497  -0.030787   0.425624   0.013931  -0.010958
               7          8          9         10         11         12
     1  C   -0.001004   0.425764  -0.002037  -0.002037  -0.000004  -0.000004
     2  C    0.015473  -0.035442  -0.008536  -0.008536  -0.011007  -0.011007
     3  C   -0.032859   0.013285  -0.031761  -0.031761  -0.030807  -0.030807
     4  C    0.425752  -0.000710  -0.009074  -0.009074   0.013389   0.013389
     5  C   -0.010566  -0.000666   0.422236   0.013727   0.428115  -0.010021
     6  C   -0.010566  -0.000666   0.013727   0.422236  -0.010021   0.428115
     7  H    0.630595   0.000070  -0.001209  -0.001209   0.000228   0.000228
     8  H    0.000070   0.631733  -0.000196  -0.000196   0.000254   0.000254
     9  H   -0.001209  -0.000196   0.630705  -0.000633  -0.025627   0.000203
    10  H   -0.001209  -0.000196  -0.000633   0.630705   0.000203  -0.025627
    11  H    0.000228   0.000254  -0.025627   0.000203   0.633437   0.002775
    12  H    0.000228   0.000254   0.000203  -0.025627   0.002775   0.633437
    13  H    0.003795   0.000081  -0.024826  -0.000001  -0.026617  -0.001100
    14  H    0.003795   0.000081  -0.000001  -0.024826  -0.001100  -0.026617
    15  H   -0.000036  -0.025168  -0.000100   0.000167  -0.000535  -0.000277
    16  H   -0.000036  -0.025168   0.000167  -0.000100  -0.000277  -0.000535
    17  H    0.000170  -0.006495   0.004411   0.000209  -0.000859  -0.000422
    18  H    0.000170  -0.006495   0.000209   0.004411  -0.000422  -0.000859
    19  H   -0.025297  -0.000069   0.003666  -0.000018  -0.000037  -0.000563
    20  H   -0.025297  -0.000069  -0.000018   0.003666  -0.000563  -0.000037
              13         14         15         16         17         18
     1  C   -0.000147  -0.000147   0.430256   0.430256  -0.040857  -0.040857
     2  C    0.013650   0.013650  -0.040349  -0.040349   0.444394   0.444394
     3  C   -0.030254  -0.030254  -0.009744  -0.009744  -0.042268  -0.042268
     4  C   -0.011435  -0.011435  -0.000307  -0.000307  -0.008997  -0.008997
     5  C    0.427258  -0.010468   0.005009  -0.003330  -0.014180   0.014006
     6  C   -0.010468   0.427258  -0.003330   0.005009   0.014006  -0.014180
     7  H    0.003795   0.003795  -0.000036  -0.000036   0.000170   0.000170
     8  H    0.000081   0.000081  -0.025168  -0.025168  -0.006495  -0.006495
     9  H   -0.024826  -0.000001  -0.000100   0.000167   0.004411   0.000209
    10  H   -0.000001  -0.024826   0.000167  -0.000100   0.000209   0.004411
    11  H   -0.026617  -0.001100  -0.000535  -0.000277  -0.000859  -0.000422
    12  H   -0.001100  -0.026617  -0.000277  -0.000535  -0.000422  -0.000859
    13  H    0.630707   0.003651   0.000298  -0.000221  -0.000282  -0.000458
    14  H    0.003651   0.630707  -0.000221   0.000298  -0.000458  -0.000282
    15  H    0.000298  -0.000221   0.643743  -0.027100  -0.005495   0.009324
    16  H   -0.000221   0.000298  -0.027100   0.643743   0.009324  -0.005495
    17  H   -0.000282  -0.000458  -0.005495   0.009324   0.654718  -0.026874
    18  H   -0.000458  -0.000282   0.009324  -0.005495  -0.026874   0.654718
    19  H   -0.001189   0.000093   0.000070  -0.000028   0.005228  -0.001721
    20  H    0.000093  -0.001189  -0.000028   0.000070  -0.001721   0.005228
              19         20
     1  C   -0.000006  -0.000006
     2  C   -0.011497  -0.011497
     3  C   -0.030787  -0.030787
     4  C    0.425624   0.425624
     5  C   -0.010958   0.013931
     6  C    0.013931  -0.010958
     7  H   -0.025297  -0.025297
     8  H   -0.000069  -0.000069
     9  H    0.003666  -0.000018
    10  H   -0.000018   0.003666
    11  H   -0.000037  -0.000563
    12  H   -0.000563  -0.000037
    13  H   -0.001189   0.000093
    14  H    0.000093  -0.001189
    15  H    0.000070  -0.000028
    16  H   -0.000028   0.000070
    17  H    0.005228  -0.001721
    18  H   -0.001721   0.005228
    19  H    0.633311  -0.026378
    20  H   -0.026378   0.633311
 Mulliken charges:
               1
     1  C   -0.072025
     2  C   -0.049352
     3  C    0.075144
     4  C   -0.104596
     5  C   -0.105921
     6  C   -0.105921
     7  H    0.027804
     8  H    0.029817
     9  H    0.028694
    10  H    0.028694
    11  H    0.029475
    12  H    0.029475
    13  H    0.027466
    14  H    0.027466
    15  H    0.023821
    16  H    0.023821
    17  H    0.016447
    18  H    0.016447
    19  H    0.026623
    20  H    0.026623
 Sum of Mulliken charges =  -0.00000
 Mulliken charges with hydrogens summed into heavy atoms:
               1
     1  C    0.005434
     2  C   -0.016458
     3  C    0.075144
     4  C   -0.023546
     5  C   -0.020287
     6  C   -0.020287
 Electronic spatial extent (au):  <R**2>=            704.3318
 Charge=             -0.0000 electrons
 Dipole moment (field-independent basis, Debye):
    X=              0.0604    Y=              0.0078    Z=             -0.0000  Tot=              0.0609
 Quadrupole moment (field-independent basis, Debye-Ang):
   XX=            -42.5014   YY=            -43.0705   ZZ=            -42.5635
   XY=              0.2293   XZ=             -0.0000   YZ=              0.0000
 Traceless Quadrupole moment (field-independent basis, Debye-Ang):
   XX=              0.2104   YY=             -0.3587   ZZ=              0.1483
   XY=              0.2293   XZ=             -0.0000   YZ=              0.0000
 Octapole moment (field-independent basis, Debye-Ang**2):
  XXX=             -1.2916  YYY=             -2.0307  ZZZ=             -0.0000  XYY=              0.6672
  XXY=              0.8357  XXZ=              0.0000  XZZ=              1.9494  YZZ=              1.5050
  YYZ=              0.0000  XYZ=              0.0000
 Hexadecapole moment (field-independent basis, Debye-Ang**3):
 XXXX=           -434.5275 YYYY=           -322.8320 ZZZZ=           -250.2299 XXXY=             58.3274
 XXXZ=              0.0000 YYYX=             60.2059 YYYZ=             -0.0000 ZZZX=              0.0000
 ZZZY=              0.0000 XXYY=           -133.4487 XXZZ=           -119.3499 YYZZ=            -92.5548
 XXYZ=              0.0000 YYXZ=              0.0000 ZZXY=             18.9216
 N-N= 2.657367917331D+02 E-N=-1.079808633828D+03  KE= 2.360449116430D+02
 Symmetry A'   KE= 1.886335524922D+02
 Symmetry A"   KE= 4.741135915078D+01
 Calling FoFJK, ICntrl=      2127 FMM=F ISym2X=1 I1Cent= 0 IOpClX= 0 NMat=1 NMatS=1 NMatT=0.
 ***** Axes restored to original set *****
 -------------------------------------------------------------------
 Center     Atomic                   Forces (Hartrees/Bohr)
 Number     Number              X              Y              Z
 -------------------------------------------------------------------
      1        6          -0.000005183   -0.000009525    0.000000000
      2        6          -0.000015118    0.000011171    0.000000000
      3        6           0.000022250   -0.000020578    0.000000000
      4        6          -0.000002408   -0.000012254   -0.000000000
      5        6          -0.000010177    0.000011604   -0.000003705
      6        6          -0.000010177    0.000011604    0.000003705
      7        1          -0.000007905   -0.000005007    0.000000000
      8        1           0.000007834    0.000004348   -0.000000000
      9        1           0.000006546    0.000007418    0.000001497
     10        1           0.000006546    0.000007418   -0.000001497
     11        1           0.000003408   -0.000001307   -0.000010354
     12        1           0.000003408   -0.000001307    0.000010354
     13        1          -0.000008557    0.000005566   -0.000003003
     14        1          -0.000008557    0.000005566    0.000003003
     15        1          -0.000005495    0.000001065    0.000005760
     16        1          -0.000005495    0.000001065   -0.000005760
     17        1           0.000005995   -0.000002386    0.000006860
     18        1           0.000005995   -0.000002386   -0.000006860
     19        1           0.000008544   -0.000006037    0.000007998
     20        1           0.000008544   -0.000006037   -0.000007998
 -------------------------------------------------------------------
 Cartesian Forces:  Max     0.000022250 RMS     0.000007679

 GradGradGradGradGradGradGradGradGradGradGradGradGradGradGradGradGradGrad
 Berny optimization.
 FormGI is forming the generalized inverse of G from B-inverse, IUseBI=4.
 Internal  Forces:  Max     0.000030898 RMS     0.000006774
 Search for a local minimum.
 Step number   1 out of a maximum of  110
 All quantities printed in internal units (Hartrees-Bohrs-Radians)
 Mixed Optimization -- En-DIIS/RFO-DIIS
 Second derivative matrix not updated -- first step.
 ITU=  0
     Eigenvalues ---    0.00230   0.00272   0.00277   0.00277   0.00377
     Eigenvalues ---    0.03088   0.04424   0.04696   0.04920   0.04954
     Eigenvalues ---    0.05329   0.05357   0.05357   0.05438   0.05444
     Eigenvalues ---    0.05492   0.05492   0.05567   0.09039   0.12705
     Eigenvalues ---    0.14257   0.14529   0.16000   0.16000   0.16000
     Eigenvalues ---    0.16000   0.16000   0.16000   0.16000   0.16000
     Eigenvalues ---    0.16000   0.16000   0.16000   0.16000   0.21980
     Eigenvalues ---    0.27811   0.28753   0.28787   0.28787   0.29481
     Eigenvalues ---    0.34316   0.34316   0.34566   0.34566   0.34592
     Eigenvalues ---    0.34592   0.34613   0.34616   0.34616   0.34707
     Eigenvalues ---    0.34770   0.34770   0.34773   0.34773
 RFO step:  Lambda=-3.30695317D-08 EMin= 2.30000000D-03
 Linear search not attempted -- first point.
 Iteration  1 RMS(Cart)=  0.00017117 RMS(Int)=  0.00000002
 Iteration  2 RMS(Cart)=  0.00000002 RMS(Int)=  0.00000000
 ClnCor:  largest displacement from symmetrization is 3.63D-11 for atom    16.
 Variable       Old X    -DE/DX   Delta X   Delta X   Delta X     New X
                                 (Linear)    (Quad)   (Total)
    R1        2.89011  -0.00001   0.00000  -0.00002  -0.00002   2.89009
    R2        2.06153   0.00001   0.00000   0.00003   0.00003   2.06156
    R3        2.06050   0.00000   0.00000   0.00001   0.00001   2.06051
    R4        2.06050   0.00000   0.00000   0.00001   0.00001   2.06051
    R5        2.92554  -0.00001   0.00000  -0.00003  -0.00003   2.92551
    R6        2.06800   0.00001   0.00000   0.00002   0.00002   2.06802
    R7        2.06800   0.00001   0.00000   0.00002   0.00002   2.06802
    R8        2.90522  -0.00003   0.00000  -0.00011  -0.00011   2.90511
    R9        2.90449  -0.00002   0.00000  -0.00007  -0.00007   2.90443
   R10        2.90449  -0.00002   0.00000  -0.00007  -0.00007   2.90443
   R11        2.06307   0.00001   0.00000   0.00003   0.00003   2.06310
   R12        2.06342   0.00001   0.00000   0.00002   0.00002   2.06344
   R13        2.06342   0.00001   0.00000   0.00002   0.00002   2.06344
   R14        2.06385   0.00001   0.00000   0.00002   0.00002   2.06387
   R15        2.06045   0.00000   0.00000   0.00001   0.00001   2.06046
   R16        2.06303   0.00001   0.00000   0.00002   0.00002   2.06305
   R17        2.06385   0.00001   0.00000   0.00002   0.00002   2.06387
   R18        2.06045   0.00000   0.00000   0.00001   0.00001   2.06046
   R19        2.06303   0.00001   0.00000   0.00002   0.00002   2.06305
    A1        1.92397  -0.00001   0.00000  -0.00004  -0.00004   1.92393
    A2        1.95550  -0.00001   0.00000  -0.00004  -0.00004   1.95547
    A3        1.95550  -0.00001   0.00000  -0.00004  -0.00004   1.95547
    A4        1.87165   0.00001   0.00000   0.00003   0.00003   1.87168
    A5        1.87165   0.00001   0.00000   0.00003   0.00003   1.87168
    A6        1.88155   0.00001   0.00000   0.00005   0.00005   1.88160
    A7        2.04182  -0.00001   0.00000  -0.00003  -0.00003   2.04178
    A8        1.89846  -0.00000   0.00000  -0.00003  -0.00003   1.89842
    A9        1.89846  -0.00000   0.00000  -0.00003  -0.00003   1.89842
   A10        1.88373   0.00000   0.00000   0.00004   0.00004   1.88376
   A11        1.88373   0.00000   0.00000   0.00004   0.00004   1.88376
   A12        1.84831   0.00000   0.00000   0.00004   0.00004   1.84834
   A13        1.88380  -0.00000   0.00000  -0.00001  -0.00001   1.88379
   A14        1.93439   0.00000   0.00000   0.00009   0.00009   1.93448
   A15        1.93439   0.00000   0.00000   0.00009   0.00009   1.93448
   A16        1.89951  -0.00000   0.00000  -0.00009  -0.00009   1.89942
   A17        1.89951  -0.00000   0.00000  -0.00009  -0.00009   1.89942
   A18        1.91142  -0.00000   0.00000   0.00000   0.00000   1.91142
   A19        1.93841  -0.00000   0.00000  -0.00003  -0.00003   1.93838
   A20        1.93947  -0.00001   0.00000  -0.00007  -0.00007   1.93939
   A21        1.93947  -0.00001   0.00000  -0.00007  -0.00007   1.93939
   A22        1.88140   0.00001   0.00000   0.00006   0.00006   1.88146
   A23        1.88140   0.00001   0.00000   0.00006   0.00006   1.88146
   A24        1.88112   0.00001   0.00000   0.00007   0.00007   1.88119
   A25        1.93911  -0.00001   0.00000  -0.00004  -0.00004   1.93907
   A26        1.95281  -0.00001   0.00000  -0.00009  -0.00009   1.95272
   A27        1.93084  -0.00000   0.00000  -0.00001  -0.00001   1.93083
   A28        1.88339   0.00001   0.00000   0.00005   0.00005   1.88344
   A29        1.87974   0.00001   0.00000   0.00005   0.00005   1.87978
   A30        1.87499   0.00001   0.00000   0.00005   0.00005   1.87504
   A31        1.93911  -0.00001   0.00000  -0.00004  -0.00004   1.93907
   A32        1.95281  -0.00001   0.00000  -0.00009  -0.00009   1.95272
   A33        1.93084  -0.00000   0.00000  -0.00001  -0.00001   1.93083
   A34        1.88339   0.00001   0.00000   0.00005   0.00005   1.88344
   A35        1.87974   0.00001   0.00000   0.00005   0.00005   1.87978
   A36        1.87499   0.00001   0.00000   0.00005   0.00005   1.87504
    D1        3.14159   0.00000   0.00000   0.00000   0.00000   3.14159
    D2       -1.00276   0.00000   0.00000  -0.00000  -0.00000  -1.00276
    D3        1.00276  -0.00000   0.00000   0.00000   0.00000   1.00276
    D4       -1.05873  -0.00000   0.00000  -0.00001  -0.00001  -1.05873
    D5        1.08011   0.00000   0.00000  -0.00001  -0.00001   1.08010
    D6        3.08563  -0.00000   0.00000  -0.00000  -0.00000   3.08562
    D7        1.05873   0.00000   0.00000   0.00001   0.00001   1.05873
    D8       -3.08563   0.00000   0.00000   0.00000   0.00000  -3.08562
    D9       -1.08011  -0.00000   0.00000   0.00001   0.00001  -1.08010
   D10        3.14159   0.00000   0.00000   0.00000   0.00000   3.14159
   D11        1.06307   0.00000   0.00000   0.00006   0.00006   1.06313
   D12       -1.06307  -0.00000   0.00000  -0.00006  -0.00006  -1.06313
   D13        0.99517   0.00000   0.00000   0.00004   0.00004   0.99521
   D14       -1.08336   0.00001   0.00000   0.00010   0.00010  -1.08326
   D15        3.07369   0.00000   0.00000  -0.00002  -0.00002   3.07367
   D16       -0.99517  -0.00000   0.00000  -0.00004  -0.00004  -0.99521
   D17       -3.07369  -0.00000   0.00000   0.00002   0.00002  -3.07367
   D18        1.08336  -0.00001   0.00000  -0.00010  -0.00010   1.08326
   D19        3.14159   0.00000   0.00000   0.00000   0.00000   3.14159
   D20       -1.04731   0.00000   0.00000   0.00001   0.00001  -1.04731
   D21        1.04731  -0.00000   0.00000  -0.00001  -0.00001   1.04731
   D22       -1.04103   0.00000   0.00000   0.00005   0.00005  -1.04098
   D23        1.05325   0.00000   0.00000   0.00006   0.00006   1.05330
   D24       -3.13531   0.00000   0.00000   0.00004   0.00004  -3.13527
   D25        1.04103  -0.00000   0.00000  -0.00005  -0.00005   1.04098
   D26        3.13531  -0.00000   0.00000  -0.00004  -0.00004   3.13527
   D27       -1.05325  -0.00000   0.00000  -0.00006  -0.00006  -1.05330
   D28        0.98624  -0.00000   0.00000  -0.00039  -0.00039   0.98585
   D29       -1.12008  -0.00000   0.00000  -0.00037  -0.00037  -1.12044
   D30        3.07316  -0.00000   0.00000  -0.00036  -0.00036   3.07280
   D31       -1.08279  -0.00000   0.00000  -0.00038  -0.00038  -1.08317
   D32        3.09408  -0.00000   0.00000  -0.00035  -0.00035   3.09372
   D33        1.00413  -0.00000   0.00000  -0.00035  -0.00035   1.00378
   D34        3.12578   0.00000   0.00000  -0.00022  -0.00022   3.12556
   D35        1.01946   0.00000   0.00000  -0.00019  -0.00019   1.01927
   D36       -1.07049   0.00000   0.00000  -0.00019  -0.00019  -1.07068
   D37       -0.98624   0.00000   0.00000   0.00039   0.00039  -0.98585
   D38        1.12008   0.00000   0.00000   0.00037   0.00037   1.12044
   D39       -3.07316   0.00000   0.00000   0.00036   0.00036  -3.07280
   D40        1.08279   0.00000   0.00000   0.00038   0.00038   1.08317
   D41       -3.09408   0.00000   0.00000   0.00035   0.00035  -3.09372
   D42       -1.00413   0.00000   0.00000   0.00035   0.00035  -1.00378
   D43       -3.12578  -0.00000   0.00000   0.00022   0.00022  -3.12556
   D44       -1.01946  -0.00000   0.00000   0.00019   0.00019  -1.01927
   D45        1.07049  -0.00000   0.00000   0.00019   0.00019   1.07068
         Item               Value     Threshold  Converged?
 Maximum Force            0.000031     0.000450     YES
 RMS     Force            0.000007     0.000300     YES
 Maximum Displacement     0.000621     0.001800     YES
 RMS     Displacement     0.000171     0.001200     YES
 Predicted change in Energy=-1.653487D-08
 Optimization completed.
    -- Stationary point found.
                           ----------------------------
                           !   Optimized Parameters   !
                           ! (Angstroms and Degrees)  !
 --------------------------                            --------------------------
 ! Name  Definition              Value          Derivative Info.                !
 --------------------------------------------------------------------------------
 ! R1    R(1,2)                  1.5294         -DE/DX =    0.0                 !
 ! R2    R(1,8)                  1.0909         -DE/DX =    0.0                 !
 ! R3    R(1,15)                 1.0904         -DE/DX =    0.0                 !
 ! R4    R(1,16)                 1.0904         -DE/DX =    0.0                 !
 ! R5    R(2,3)                  1.5481         -DE/DX =    0.0                 !
 ! R6    R(2,17)                 1.0943         -DE/DX =    0.0                 !
 ! R7    R(2,18)                 1.0943         -DE/DX =    0.0                 !
 ! R8    R(3,4)                  1.5374         -DE/DX =    0.0                 !
 ! R9    R(3,5)                  1.537          -DE/DX =    0.0                 !
 ! R10   R(3,6)                  1.537          -DE/DX =    0.0                 !
 ! R11   R(4,7)                  1.0917         -DE/DX =    0.0                 !
 ! R12   R(4,19)                 1.0919         -DE/DX =    0.0                 !
 ! R13   R(4,20)                 1.0919         -DE/DX =    0.0                 !
 ! R14   R(5,9)                  1.0921         -DE/DX =    0.0                 !
 ! R15   R(5,11)                 1.0903         -DE/DX =    0.0                 !
 ! R16   R(5,13)                 1.0917         -DE/DX =    0.0                 !
 ! R17   R(6,10)                 1.0921         -DE/DX =    0.0                 !
 ! R18   R(6,12)                 1.0903         -DE/DX =    0.0                 !
 ! R19   R(6,14)                 1.0917         -DE/DX =    0.0                 !
 ! A1    A(2,1,8)              110.2351         -DE/DX =    0.0                 !
 ! A2    A(2,1,15)             112.0421         -DE/DX =    0.0                 !
 ! A3    A(2,1,16)             112.0421         -DE/DX =    0.0                 !
 ! A4    A(8,1,15)             107.2377         -DE/DX =    0.0                 !
 ! A5    A(8,1,16)             107.2377         -DE/DX =    0.0                 !
 ! A6    A(15,1,16)            107.805          -DE/DX =    0.0                 !
 ! A7    A(1,2,3)              116.9875         -DE/DX =    0.0                 !
 ! A8    A(1,2,17)             108.7735         -DE/DX =    0.0                 !
 ! A9    A(1,2,18)             108.7735         -DE/DX =    0.0                 !
 ! A10   A(3,2,17)             107.9295         -DE/DX =    0.0                 !
 ! A11   A(3,2,18)             107.9295         -DE/DX =    0.0                 !
 ! A12   A(17,2,18)            105.9003         -DE/DX =    0.0                 !
 ! A13   A(2,3,4)              107.9335         -DE/DX =    0.0                 !
 ! A14   A(2,3,5)              110.8324         -DE/DX =    0.0                 !
 ! A15   A(2,3,6)              110.8324         -DE/DX =    0.0                 !
 ! A16   A(4,3,5)              108.8339         -DE/DX =    0.0                 !
 ! A17   A(4,3,6)              108.8339         -DE/DX =    0.0                 !
 ! A18   A(5,3,6)              109.5162         -DE/DX =    0.0                 !
 ! A19   A(3,4,7)              111.0629         -DE/DX =    0.0                 !
 ! A20   A(3,4,19)             111.1233         -DE/DX =    0.0                 !
 ! A21   A(3,4,20)             111.1233         -DE/DX =    0.0                 !
 ! A22   A(7,4,19)             107.7965         -DE/DX =    0.0                 !
 ! A23   A(7,4,20)             107.7965         -DE/DX =    0.0                 !
 ! A24   A(19,4,20)            107.7803         -DE/DX =    0.0                 !
 ! A25   A(3,5,9)              111.1029         -DE/DX =    0.0                 !
 ! A26   A(3,5,11)             111.888          -DE/DX =    0.0                 !
 ! A27   A(3,5,13)             110.6287         -DE/DX =    0.0                 !
 ! A28   A(9,5,11)             107.9102         -DE/DX =    0.0                 !
 ! A29   A(9,5,13)             107.7009         -DE/DX =    0.0                 !
 ! A30   A(11,5,13)            107.4289         -DE/DX =    0.0                 !
 ! A31   A(3,6,10)             111.1029         -DE/DX =    0.0                 !
 ! A32   A(3,6,12)             111.888          -DE/DX =    0.0                 !
 ! A33   A(3,6,14)             110.6287         -DE/DX =    0.0                 !
 ! A34   A(10,6,12)            107.9102         -DE/DX =    0.0                 !
 ! A35   A(10,6,14)            107.7009         -DE/DX =    0.0                 !
 ! A36   A(12,6,14)            107.4289         -DE/DX =    0.0                 !
 ! D1    D(8,1,2,3)            180.0            -DE/DX =    0.0                 !
 ! D2    D(8,1,2,17)           -57.4539         -DE/DX =    0.0                 !
 ! D3    D(8,1,2,18)            57.4539         -DE/DX =    0.0                 !
 ! D4    D(15,1,2,3)           -60.6605         -DE/DX =    0.0                 !
 ! D5    D(15,1,2,17)           61.8856         -DE/DX =    0.0                 !
 ! D6    D(15,1,2,18)          176.7933         -DE/DX =    0.0                 !
 ! D7    D(16,1,2,3)            60.6605         -DE/DX =    0.0                 !
 ! D8    D(16,1,2,17)         -176.7933         -DE/DX =    0.0                 !
 ! D9    D(16,1,2,18)          -61.8856         -DE/DX =    0.0                 !
 ! D10   D(1,2,3,4)            180.0            -DE/DX =    0.0                 !
 ! D11   D(1,2,3,5)             60.9093         -DE/DX =    0.0                 !
 ! D12   D(1,2,3,6)            -60.9093         -DE/DX =    0.0                 !
 ! D13   D(17,2,3,4)            57.0188         -DE/DX =    0.0                 !
 ! D14   D(17,2,3,5)           -62.0719         -DE/DX =    0.0                 !
 ! D15   D(17,2,3,6)           176.1095         -DE/DX =    0.0                 !
 ! D16   D(18,2,3,4)           -57.0188         -DE/DX =    0.0                 !
 ! D17   D(18,2,3,5)          -176.1095         -DE/DX =    0.0                 !
 ! D18   D(18,2,3,6)            62.0719         -DE/DX =    0.0                 !
 ! D19   D(2,3,4,7)            180.0            -DE/DX =    0.0                 !
 ! D20   D(2,3,4,19)           -60.0066         -DE/DX =    0.0                 !
 ! D21   D(2,3,4,20)            60.0066         -DE/DX =    0.0                 !
 ! D22   D(5,3,4,7)            -59.6467         -DE/DX =    0.0                 !
 ! D23   D(5,3,4,19)            60.3467         -DE/DX =    0.0                 !
 ! D24   D(5,3,4,20)          -179.64           -DE/DX =    0.0                 !
 ! D25   D(6,3,4,7)             59.6467         -DE/DX =    0.0                 !
 ! D26   D(6,3,4,19)           179.64           -DE/DX =    0.0                 !
 ! D27   D(6,3,4,20)           -60.3467         -DE/DX =    0.0                 !
 ! D28   D(2,3,5,9)             56.5073         -DE/DX =    0.0                 !
 ! D29   D(2,3,5,11)           -64.1757         -DE/DX =    0.0                 !
 ! D30   D(2,3,5,13)           176.079          -DE/DX =    0.0                 !
 ! D31   D(4,3,5,9)            -62.0395         -DE/DX =    0.0                 !
 ! D32   D(4,3,5,11)           177.2775         -DE/DX =    0.0                 !
 ! D33   D(4,3,5,13)            57.5322         -DE/DX =    0.0                 !
 ! D34   D(6,3,5,9)            179.0938         -DE/DX =    0.0                 !
 ! D35   D(6,3,5,11)            58.4108         -DE/DX =    0.0                 !
 ! D36   D(6,3,5,13)           -61.3345         -DE/DX =    0.0                 !
 ! D37   D(2,3,6,10)           -56.5073         -DE/DX =    0.0                 !
 ! D38   D(2,3,6,12)            64.1757         -DE/DX =    0.0                 !
 ! D39   D(2,3,6,14)          -176.079          -DE/DX =    0.0                 !
 ! D40   D(4,3,6,10)            62.0395         -DE/DX =    0.0                 !
 ! D41   D(4,3,6,12)          -177.2775         -DE/DX =    0.0                 !
 ! D42   D(4,3,6,14)           -57.5322         -DE/DX =    0.0                 !
 ! D43   D(5,3,6,10)          -179.0938         -DE/DX =    0.0                 !
 ! D44   D(5,3,6,12)           -58.4108         -DE/DX =    0.0                 !
 ! D45   D(5,3,6,14)            61.3345         -DE/DX =    0.0                 !
 --------------------------------------------------------------------------------
 GradGradGradGradGradGradGradGradGradGradGradGradGradGradGradGradGradGrad

                          Input orientation:                          
 ---------------------------------------------------------------------
 Center     Atomic      Atomic             Coordinates (Angstroms)
 Number     Number       Type             X           Y           Z
 ---------------------------------------------------------------------
      1          6           0        1.909939   -1.068306    0.000000
      2          6           0        1.170157    0.270247    0.000000
      3          6           0       -0.377084    0.217818    0.000000
[...]
    15  H    0.000062   0.000012
    16  H    0.000012   0.000062
    17  H    0.001622   0.000368
    18  H    0.000368   0.001622
    19  H    0.578470  -0.035791
    20  H   -0.035791   0.578470
          Atomic-Atomic Spin Densities.
               1          2          3          4          5          6
     1  C    0.000000   0.000000   0.000000   0.000000   0.000000   0.000000
     2  C    0.000000   0.000000   0.000000   0.000000   0.000000   0.000000
     3  C    0.000000   0.000000   0.000000   0.000000   0.000000   0.000000
     4  C    0.000000   0.000000   0.000000   0.000000   0.000000   0.000000
     5  C    0.000000   0.000000   0.000000   0.000000   0.000000   0.000000
     6  C    0.000000   0.000000   0.000000   0.000000   0.000000   0.000000
     7  H    0.000000   0.000000   0.000000   0.000000   0.000000   0.000000
     8  H    0.000000   0.000000   0.000000   0.000000   0.000000   0.000000
     9  H    0.000000   0.000000   0.000000   0.000000   0.000000   0.000000
    10  H    0.000000   0.000000   0.000000   0.000000   0.000000   0.000000
    11  H    0.000000   0.000000   0.000000   0.000000   0.000000   0.000000
    12  H    0.000000   0.000000   0.000000   0.000000   0.000000   0.000000
    13  H    0.000000   0.000000   0.000000   0.000000   0.000000   0.000000
    14  H    0.000000   0.000000   0.000000   0.000000   0.000000   0.000000
    15  H    0.000000   0.000000   0.000000   0.000000   0.000000   0.000000
    16  H    0.000000   0.000000   0.000000   0.000000   0.000000   0.000000
    17  H    0.000000   0.000000   0.000000   0.000000   0.000000   0.000000
    18  H    0.000000   0.000000   0.000000   0.000000   0.000000   0.000000
    19  H    0.000000   0.000000   0.000000   0.000000   0.000000   0.000000
    20  H    0.000000   0.000000   0.000000   0.000000   0.000000   0.000000
               7          8          9         10         11         12
     1  C    0.000000   0.000000   0.000000   0.000000   0.000000   0.000000
     2  C    0.000000   0.000000   0.000000   0.000000   0.000000   0.000000
     3  C    0.000000   0.000000   0.000000   0.000000   0.000000   0.000000
     4  C    0.000000   0.000000   0.000000   0.000000   0.000000   0.000000
     5  C    0.000000   0.000000   0.000000   0.000000   0.000000   0.000000
     6  C    0.000000   0.000000   0.000000   0.000000   0.000000   0.000000
     7  H    0.000000   0.000000   0.000000   0.000000   0.000000   0.000000
     8  H    0.000000   0.000000   0.000000   0.000000   0.000000   0.000000
     9  H    0.000000   0.000000   0.000000   0.000000   0.000000   0.000000
    10  H    0.000000   0.000000   0.000000   0.000000   0.000000   0.000000
    11  H    0.000000   0.000000   0.000000   0.000000   0.000000   0.000000
    12  H    0.000000   0.000000   0.000000   0.000000   0.000000   0.000000
    13  H    0.000000   0.000000   0.000000   0.000000   0.000000   0.000000
    14  H    0.000000   0.000000   0.000000   0.000000   0.000000   0.000000
    15  H    0.000000   0.000000   0.000000   0.000000   0.000000   0.000000
    16  H    0.000000   0.000000   0.000000   0.000000   0.000000   0.000000
    17  H    0.000000   0.000000   0.000000   0.000000   0.000000   0.000000
    18  H    0.000000   0.000000   0.000000   0.000000   0.000000   0.000000
    19  H    0.000000   0.000000   0.000000   0.000000   0.000000   0.000000
    20  H    0.000000   0.000000   0.000000   0.000000   0.000000   0.000000
              13         14         15         16         17         18
     1  C    0.000000   0.000000   0.000000   0.000000   0.000000   0.000000
     2  C    0.000000   0.000000   0.000000   0.000000   0.000000   0.000000
     3  C    0.000000   0.000000   0.000000   0.000000   0.000000   0.000000
     4  C    0.000000   0.000000   0.000000   0.000000   0.000000   0.000000
     5  C    0.000000   0.000000   0.000000   0.000000   0.000000   0.000000
     6  C    0.000000   0.000000   0.000000   0.000000   0.000000   0.000000
     7  H    0.000000   0.000000   0.000000   0.000000   0.000000   0.000000
     8  H    0.000000   0.000000   0.000000   0.000000   0.000000   0.000000
     9  H    0.000000   0.000000   0.000000   0.000000   0.000000   0.000000
    10  H    0.000000   0.000000   0.000000   0.000000   0.000000   0.000000
    11  H    0.000000   0.000000   0.000000   0.000000   0.000000   0.000000
    12  H    0.000000   0.000000   0.000000   0.000000   0.000000   0.000000
    13  H    0.000000   0.000000   0.000000   0.000000   0.000000   0.000000
    14  H    0.000000   0.000000   0.000000   0.000000   0.000000   0.000000
    15  H    0.000000   0.000000   0.000000   0.000000   0.000000   0.000000
    16  H    0.000000   0.000000   0.000000   0.000000   0.000000   0.000000
    17  H    0.000000   0.000000   0.000000   0.000000   0.000000   0.000000
    18  H    0.000000   0.000000   0.000000   0.000000   0.000000   0.000000
    19  H    0.000000   0.000000   0.000000   0.000000   0.000000   0.000000
    20  H    0.000000   0.000000   0.000000   0.000000   0.000000   0.000000
              19         20
     1  C    0.000000   0.000000
     2  C    0.000000   0.000000
     3  C    0.000000   0.000000
     4  C    0.000000   0.000000
     5  C    0.000000   0.000000
     6  C    0.000000   0.000000
     7  H    0.000000   0.000000
     8  H    0.000000   0.000000
     9  H    0.000000   0.000000
    10  H    0.000000   0.000000
    11  H    0.000000   0.000000
    12  H    0.000000   0.000000
    13  H    0.000000   0.000000
    14  H    0.000000   0.000000
    15  H    0.000000   0.000000
    16  H    0.000000   0.000000
    17  H    0.000000   0.000000
    18  H    0.000000   0.000000
    19  H    0.000000   0.000000
    20  H    0.000000   0.000000
 Mulliken charges and spin densities:
               1          2
     1  C   -0.344071   0.000000
     2  C   -0.147228   0.000000
     3  C    0.268619   0.000000
     4  C   -0.365114   0.000000
     5  C   -0.392256   0.000000
     6  C   -0.392256   0.000000
     7  H    0.102375   0.000000
     8  H    0.091806   0.000000
     9  H    0.111587   0.000000
    10  H    0.111587   0.000000
    11  H    0.096472   0.000000
    12  H    0.096472   0.000000
    13  H    0.102516   0.000000
    14  H    0.102516   0.000000
    15  H    0.094564   0.000000
    16  H    0.094564   0.000000
    17  H    0.078641   0.000000
    18  H    0.078641   0.000000
    19  H    0.105283   0.000000
    20  H    0.105283   0.000000
 Sum of Mulliken charges =  -0.00000   0.00000
 Mulliken charges and spin densities with hydrogens summed into heavy atoms:
               1          2
     1  C   -0.063137   0.000000
     2  C    0.010054   0.000000
     3  C    0.268619   0.000000
     4  C   -0.052174   0.000000
     5  C   -0.081681   0.000000
     6  C   -0.081681   0.000000
 Electronic spatial extent (au):  <R**2>=            703.9216
 Charge=              0.0000 electrons
 Dipole moment (field-independent basis, Debye):
    X=              0.0514    Y=              0.0065    Z=             -0.0000  Tot=              0.0518
 Quadrupole moment (field-independent basis, Debye-Ang):
   XX=            -42.3858   YY=            -42.8546   ZZ=            -42.3433
   XY=              0.2626   XZ=              0.0000   YZ=              0.0000
 Traceless Quadrupole moment (field-independent basis, Debye-Ang):
   XX=              0.1421   YY=             -0.3267   ZZ=              0.1846
   XY=              0.2626   XZ=              0.0000   YZ=              0.0000
 Octapole moment (field-independent basis, Debye-Ang**2):
  XXX=             -1.6823  YYY=             -2.1857  ZZZ=             -0.0000  XYY=              0.7071
  XXY=              0.9242  XXZ=             -0.0000  XZZ=              2.0426  YZZ=              1.5937
  YYZ=             -0.0000  XYZ=             -0.0000
 Hexadecapole moment (field-independent basis, Debye-Ang**3):
 XXXX=           -428.3677 YYYY=           -316.4509 ZZZZ=           -244.6392 XXXY=             58.0739
 XXXZ=             -0.0000 YYYX=             59.9589 YYYZ=             -0.0000 ZZZX=             -0.0000
 ZZZY=             -0.0000 XXYY=           -131.5481 XXZZ=           -117.4721 YYZZ=            -90.4165
 XXYZ=              0.0000 YYXZ=              0.0000 ZZXY=             18.7824
 N-N= 2.657367917331D+02 E-N=-1.078373039210D+03  KE= 2.352659243213D+02
 Symmetry A'   KE= 1.882245406086D+02
 Symmetry A"   KE= 4.704138371269D+01
 Symmetry A'   SP= 0.000000000000D+00
 Symmetry A"   SP= 0.000000000000D+00
                          Isotropic Fermi Contact Couplings
        Atom                 a.u.       MegaHertz       Gauss      10(-4) cm-1
     1  C(13)              0.00000       0.00000       0.00000       0.00000
     2  C(13)              0.00000       0.00000       0.00000       0.00000
     3  C(13)              0.00000       0.00000       0.00000       0.00000
     4  C(13)              0.00000       0.00000       0.00000       0.00000
     5  C(13)              0.00000       0.00000       0.00000       0.00000
     6  C(13)              0.00000       0.00000       0.00000       0.00000
     7  H(1)               0.00000       0.00000       0.00000       0.00000
     8  H(1)               0.00000       0.00000       0.00000       0.00000
     9  H(1)               0.00000       0.00000       0.00000       0.00000
    10  H(1)               0.00000       0.00000       0.00000       0.00000
    11  H(1)               0.00000       0.00000       0.00000       0.00000
    12  H(1)               0.00000       0.00000       0.00000       0.00000
    13  H(1)               0.00000       0.00000       0.00000       0.00000
    14  H(1)               0.00000       0.00000       0.00000       0.00000
    15  H(1)               0.00000       0.00000       0.00000       0.00000
    16  H(1)               0.00000       0.00000       0.00000       0.00000
    17  H(1)               0.00000       0.00000       0.00000       0.00000
    18  H(1)               0.00000       0.00000       0.00000       0.00000
    19  H(1)               0.00000       0.00000       0.00000       0.00000
    20  H(1)               0.00000       0.00000       0.00000       0.00000
 --------------------------------------------------------
       Center         ----  Spin Dipole Couplings  ----
                      3XX-RR        3YY-RR        3ZZ-RR
 --------------------------------------------------------
     1   Atom        0.000000      0.000000      0.000000
     2   Atom        0.000000      0.000000      0.000000
     3   Atom        0.000000      0.000000      0.000000
     4   Atom        0.000000      0.000000      0.000000
     5   Atom        0.000000      0.000000      0.000000
     6   Atom        0.000000      0.000000      0.000000
     7   Atom        0.000000      0.000000      0.000000
     8   Atom        0.000000      0.000000      0.000000
     9   Atom        0.000000      0.000000      0.000000
    10   Atom        0.000000      0.000000      0.000000
    11   Atom        0.000000      0.000000      0.000000
    12   Atom        0.000000      0.000000      0.000000
    13   Atom        0.000000      0.000000      0.000000
    14   Atom        0.000000      0.000000      0.000000
    15   Atom        0.000000      0.000000      0.000000
    16   Atom        0.000000      0.000000      0.000000
    17   Atom        0.000000      0.000000      0.000000
    18   Atom        0.000000      0.000000      0.000000
    19   Atom        0.000000      0.000000      0.000000
    20   Atom        0.000000      0.000000      0.000000
 --------------------------------------------------------
                        XY            XZ            YZ
 --------------------------------------------------------
     1   Atom        0.000000      0.000000      0.000000
     2   Atom        0.000000      0.000000      0.000000
     3   Atom        0.000000      0.000000      0.000000
     4   Atom        0.000000      0.000000      0.000000
     5   Atom        0.000000      0.000000      0.000000
     6   Atom        0.000000      0.000000      0.000000
     7   Atom        0.000000      0.000000      0.000000
     8   Atom        0.000000      0.000000      0.000000
     9   Atom        0.000000      0.000000      0.000000
    10   Atom        0.000000      0.000000      0.000000
    11   Atom        0.000000      0.000000      0.000000
    12   Atom        0.000000      0.000000      0.000000
    13   Atom        0.000000      0.000000      0.000000
    14   Atom        0.000000      0.000000      0.000000
    15   Atom        0.000000      0.000000      0.000000
    16   Atom        0.000000      0.000000      0.000000
    17   Atom        0.000000      0.000000      0.000000
    18   Atom        0.000000      0.000000      0.000000
    19   Atom        0.000000      0.000000      0.000000
    20   Atom        0.000000      0.000000      0.000000
 --------------------------------------------------------


 ---------------------------------------------------------------------------------
              Anisotropic Spin Dipole Couplings in Principal Axis System
 ---------------------------------------------------------------------------------

       Atom             a.u.   MegaHertz   Gauss  10(-4) cm-1        Axes

              Baa     0.0000     0.000     0.000     0.000  1.0000  0.0000  0.0000
     1 C(13)  Bbb     0.0000     0.000     0.000     0.000 -0.0000  1.0000  0.0000
              Bcc     0.0000     0.000     0.000     0.000  0.0000  0.0000  1.0000
 
              Baa     0.0000     0.000     0.000     0.000  1.0000  0.0000  0.0000
     2 C(13)  Bbb     0.0000     0.000     0.000     0.000 -0.0000  1.0000  0.0000
              Bcc     0.0000     0.000     0.000     0.000  0.0000  0.0000  1.0000
 
              Baa     0.0000     0.000     0.000     0.000  1.0000  0.0000  0.0000
     3 C(13)  Bbb     0.0000     0.000     0.000     0.000 -0.0000  1.0000  0.0000
              Bcc     0.0000     0.000     0.000     0.000  0.0000  0.0000  1.0000
 
              Baa     0.0000     0.000     0.000     0.000  1.0000  0.0000  0.0000
     4 C(13)  Bbb     0.0000     0.000     0.000     0.000 -0.0000  1.0000  0.0000
              Bcc     0.0000     0.000     0.000     0.000  0.0000  0.0000  1.0000
 
              Baa     0.0000     0.000     0.000     0.000  1.0000  0.0000  0.0000
     5 C(13)  Bbb     0.0000     0.000     0.000     0.000 -0.0000  1.0000  0.0000
              Bcc     0.0000     0.000     0.000     0.000  0.0000  0.0000  1.0000
 
              Baa     0.0000     0.000     0.000     0.000  1.0000  0.0000  0.0000
     6 C(13)  Bbb     0.0000     0.000     0.000     0.000 -0.0000  1.0000  0.0000
              Bcc     0.0000     0.000     0.000     0.000  0.0000  0.0000  1.0000
 
              Baa     0.0000     0.000     0.000     0.000  1.0000  0.0000  0.0000
     7 H(1)   Bbb     0.0000     0.000     0.000     0.000 -0.0000  1.0000  0.0000
              Bcc     0.0000     0.000     0.000     0.000  0.0000  0.0000  1.0000
 
              Baa     0.0000     0.000     0.000     0.000  1.0000  0.0000  0.0000
     8 H(1)   Bbb     0.0000     0.000     0.000     0.000 -0.0000  1.0000  0.0000
              Bcc     0.0000     0.000     0.000     0.000  0.0000  0.0000  1.0000
 
              Baa     0.0000     0.000     0.000     0.000  1.0000  0.0000  0.0000
     9 H(1)   Bbb     0.0000     0.000     0.000     0.000 -0.0000  1.0000  0.0000
              Bcc     0.0000     0.000     0.000     0.000  0.0000  0.0000  1.0000
 
              Baa     0.0000     0.000     0.000     0.000  1.0000  0.0000  0.0000
    10 H(1)   Bbb     0.0000     0.000     0.000     0.000 -0.0000  1.0000  0.0000
              Bcc     0.0000     0.000     0.000     0.000  0.0000  0.0000  1.0000
 
              Baa     0.0000     0.000     0.000     0.000  1.0000  0.0000  0.0000
    11 H(1)   Bbb     0.0000     0.000     0.000     0.000 -0.0000  1.0000  0.0000
              Bcc     0.0000     0.000     0.000     0.000  0.0000  0.0000  1.0000
 
              Baa     0.0000     0.000     0.000     0.000  1.0000  0.0000  0.0000
    12 H(1)   Bbb     0.0000     0.000     0.000     0.000 -0.0000  1.0000  0.0000
              Bcc     0.0000     0.000     0.000     0.000  0.0000  0.0000  1.0000
 
              Baa     0.0000     0.000     0.000     0.000  1.0000  0.0000  0.0000
    13 H(1)   Bbb     0.0000     0.000     0.000     0.000 -0.0000  1.0000  0.0000
              Bcc     0.0000     0.000     0.000     0.000  0.0000  0.0000  1.0000
 
              Baa     0.0000     0.000     0.000     0.000  1.0000  0.0000  0.0000
    14 H(1)   Bbb     0.0000     0.000     0.000     0.000 -0.0000  1.0000  0.0000
              Bcc     0.0000     0.000     0.000     0.000  0.0000  0.0000  1.0000
 
              Baa     0.0000     0.000     0.000     0.000  1.0000  0.0000  0.0000
    15 H(1)   Bbb     0.0000     0.000     0.000     0.000 -0.0000  1.0000  0.0000
              Bcc     0.0000     0.000     0.000     0.000  0.0000  0.0000  1.0000
 
              Baa     0.0000     0.000     0.000     0.000  1.0000  0.0000  0.0000
    16 H(1)   Bbb     0.0000     0.000     0.000     0.000 -0.0000  1.0000  0.0000
              Bcc     0.0000     0.000     0.000     0.000  0.0000  0.0000  1.0000
 
              Baa     0.0000     0.000     0.000     0.000  1.0000  0.0000  0.0000
    17 H(1)   Bbb     0.0000     0.000     0.000     0.000 -0.0000  1.0000  0.0000
              Bcc     0.0000     0.000     0.000     0.000  0.0000  0.0000  1.0000
 
              Baa     0.0000     0.000     0.000     0.000  1.0000  0.0000  0.0000
    18 H(1)   Bbb     0.0000     0.000     0.000     0.000 -0.0000  1.0000  0.0000
              Bcc     0.0000     0.000     0.000     0.000  0.0000  0.0000  1.0000
 
              Baa     0.0000     0.000     0.000     0.000  1.0000  0.0000  0.0000
    19 H(1)   Bbb     0.0000     0.000     0.000     0.000 -0.0000  1.0000  0.0000
              Bcc     0.0000     0.000     0.000     0.000  0.0000  0.0000  1.0000
 
              Baa     0.0000     0.000     0.000     0.000  1.0000  0.0000  0.0000
    20 H(1)   Bbb     0.0000     0.000     0.000     0.000 -0.0000  1.0000  0.0000
              Bcc     0.0000     0.000     0.000     0.000  0.0000  0.0000  1.0000
 

 ---------------------------------------------------------------------------------

 1\1\GINC-GAMBA\SP\ROHF\Gen\C6H14\IRIKURA\30-Sep-2023\0\\# rohf/gen geo
 m=check guess=check\\neohexane, ROHF/cc-pVTZ-F12\\0,1\C,0,1.909939,-1.
 068306,0.\C,0,1.170157,0.270247,0.\C,0,-0.377084,0.217818,0.\C,0,-0.89
 9726,1.663627,0.\C,0,-0.899726,-0.498715,1.255297\C,0,-0.899726,-0.498
 715,-1.255297\H,0,-1.991221,1.686273,0.\H,0,2.988323,-0.903422,0.\H,0,
 -0.53009,-0.019297,2.164312\H,0,-0.53009,-0.019297,-2.164312\H,0,-0.59
 6731,-1.545787,1.281459\H,0,-0.596731,-1.545787,-1.281459\H,0,-1.99068
 4,-0.473122,1.286617\H,0,-1.990684,-0.473122,-1.286617\H,0,1.674453,-1
 .665993,0.881037\H,0,1.674453,-1.665993,-0.881037\H,0,1.487658,0.84811
 9,0.873405\H,0,1.487658,0.848119,-0.873405\H,0,-0.554654,2.206788,0.88
 2147\H,0,-0.554654,2.206788,-0.882147\\Version=ES64L-G16RevB.01\State=
 1-A'\HF=-235.4607481\RMSD=2.917e-09\Dipole=0.0202294,0.0025487,0.\Quad
 rupole=0.1056238,-0.2428828,0.137259,0.1952284,0.,0.\PG=CS [SG(C4H2),X
 (C2H12)]\\@


 THE MORE PROGRESS PHYSICAL SCIENCES MAKE, THE MORE THEY TEND TO ENTER
 THE DOMAIN OF MATHEMATICS, WHICH IS A KIND OF CENTRE TO WHICH THEY ALL
 CONVERGE.  WE MAY EVEN JUDGE THE DEGREE OF PERFECTION TO WHICH A 
 SCIENCE HAS ARRIVED BY THE FACILITY WITH WHICH IT MAY BE SUBMITTED
 TO CALCULATION.

                               -- ADOLPHE QUETELET, 1796-1874
 Job cpu time:       0 days  0 hours 33 minutes 19.2 seconds.
 Elapsed time:       0 days  0 hours  8 minutes 20.1 seconds.
 File lengths (MBytes):  RWF=    232 Int=      0 D2E=      0 Chk=     29 Scr=      1
 Normal termination of Gaussian 16 at Sat Sep 30 13:38:12 2023.
