 Entering Gaussian System, Link 0=g16
 AtFile(1): pcseg2.gbs
            -H     0
            S   4   1.00
                  0.754732D+02           0.427821D-02
                  0.113575D+02           0.328672D-01
                  0.260081D+01           0.159578D+00
                  0.735503D+00           0.500000D+00
            S   1   1.00
                  0.231761D+00           1.0000000
            S   1   1.00
                  0.741675D-01           1.0000000
            P   1   1.00
                  0.160000D+01           1.0000000
            P   1   1.00
                  0.450000D+00           1.0000000
            D   1   1.00
                  0.125000D+01           1.0000000
            ****
            -C     0
            S   7   1.00
                  0.731999D+04           0.695369D-03
                  0.109818D+04           0.537138D-02
                  0.250014D+03           0.274734D-01
                  0.707586D+02           0.105078D+00
                  0.228595D+02           0.291262D+00
                  0.803936D+01           0.500000D+00
                  0.289309D+01           0.362224D+00
            S   2   1.00
                  0.521640D+01          -0.957844D-01
                  0.556124D+00           0.500000D+00
            S   1   1.00
                  0.228813D+00           1.0000000
            S   1   1.00
                  0.936338D-01           1.0000000
            P   4   1.00
                  0.339855D+02           0.818395D-02
                  0.772957D+01           0.586921D-01
                  0.224954D+01           0.222514D+00
                  0.767681D+00           0.500000D+00
            P   1   1.00
                  0.263283D+00           1.0000000
            P   1   1.00
                  0.848744D-01           1.0000000
            D   1   1.00
                  0.140000D+01           1.0000000
            D   1   1.00
                  0.450000D+00           1.0000000
            F   1   1.00
                  0.950000D+00           1.0000000
            ****
            -O     0
            S   7   1.00
                  0.135887D+05           0.665492D-03
                  0.203847D+04           0.514222D-02
                  0.464041D+03           0.263472D-01
                  0.131339D+03           0.101500D+00
                  0.425340D+02           0.285877D+00
                  0.150429D+02           0.500000D+00
                  0.546616D+01           0.368211D+00
            S   2   1.00
                  0.100915D+02          -0.100084D+00
                  0.110429D+01           0.500000D+00
            S   1   1.00
                  0.448082D+00           1.0000000
            S   1   1.00
                  0.175325D+00           1.0000000
            P   4   1.00
                  0.608220D+02           0.908253D-02
                  0.140332D+02           0.645878D-01
                  0.418244D+01           0.241502D+00
                  0.142490D+01           0.500000D+00
            P   1   1.00
                  0.478741D+00           1.0000000
            P   1   1.00
                  0.146257D+00           1.0000000
            D   1   1.00
                  0.220000D+01           1.0000000
            D   1   1.00
                  0.650000D+00           1.0000000
            F   1   1.00
                  0.110000D+01           1.0000000
            ****
            -N     0
            S   7   1.00
                  0.101643D+05           0.682757D-03
                  0.152481D+04           0.527488D-02
                  0.347119D+03           0.270037D-01
                  0.982389D+02           0.103673D+00
                  0.317799D+02           0.289575D+00
                  0.112240D+02           0.500000D+00
                  0.406611D+01           0.364621D+00
            S   2   1.00
                  0.747898D+01          -0.975681D-01
                  0.805040D+00           0.500000D+00
            S   1   1.00
                  0.324626D+00           1.0000000
            S   1   1.00
                  0.128132D+00           1.0000000
            P   4   1.00
                  0.482704D+02           0.829547D-02
                  0.110815D+02           0.596223D-01
                  0.326643D+01           0.227889D+00
                  0.111680D+01           0.500000D+00
            P   1   1.00
                  0.382049D+00           1.0000000
            P   1   1.00
                  0.121222D+00           1.0000000
            D   1   1.00
                  0.180000D+01           1.0000000
            D   1   1.00
                  0.550000D+00           1.0000000
            F   1   1.00
                  0.102000D+01           1.0000000
            ****
            -F     0
            S   7   1.00
                  0.174507D+05           0.655972D-03
                  0.261768D+04           0.506944D-02
                  0.595857D+03           0.259899D-01
                  0.168651D+03           0.100353D+00
                  0.546654D+02           0.284095D+00
                  0.193717D+02           0.500000D+00
                  0.706202D+01           0.370721D+00
            S   2   1.00
                  0.131197D+02          -0.101997D+00
                  0.145046D+01           0.500000D+00
            S   1   1.00
                  0.588255D+00           1.0000000
            S   1   1.00
                  0.227960D+00           1.0000000
            P   4   1.00
                  0.779407D+02           0.931135D-02
                  0.180425D+02           0.663964D-01
                  0.542342D+01           0.246386D+00
                  0.184876D+01           0.500000D+00
            P   1   1.00
                  0.617455D+00           1.0000000
            P   1   1.00
                  0.185496D+00           1.0000000
            D   1   1.00
                  0.280000D+01           1.0000000
            D   1   1.00
                  0.800000D+00           1.0000000
            F   1   1.00
                  0.120000D+01           1.0000000
            ****
            -Cl     0
            S   8   1.00
                  0.154272D+06           0.222473D-03
                  0.231232D+05           0.172590D-02
                  0.526257D+04           0.899286D-02
                  0.148995D+04           0.367724D-01
                  0.485417D+03           0.121446D+00
                  0.174634D+03           0.304148D+00
                  0.672393D+02           0.500000D+00
                  0.265780D+02           0.360252D+00
            S   3   1.00
                  0.131826D+03          -0.531330D-01
                  0.400703D+02          -0.233346D+00
                  0.789448D+01           0.500000D+00
            S   2   1.00
                  0.427711D+01           0.500000D+00
                  0.196233D+01           0.370517D+00
            S   1   1.00
                  0.520793D+00           1.0000000
            S   1   1.00
                  0.181633D+00           1.0000000
            P   7   1.00
                  0.124440D+04           0.988206D-03
                  0.295109D+03           0.829674D-02
                  0.947224D+02           0.430906D-01
                  0.352588D+02           0.148443D+00
                  0.144211D+02           0.344744D+00
                  0.610371D+01           0.500000D+00
                  0.258886D+01           0.348278D+00
            P   2   1.00
                  0.109447D+02          -0.196768D-01
                  0.104413D+01           0.500000D+00
            P   1   1.00
                  0.376184D+00           1.0000000
            P   1   1.00
                  0.120613D+00           1.0000000
            D   1   1.00
                  0.231000D+01           1.0000000
            D   1   1.00
                  0.520000D+00           1.0000000
            F   1   1.00
                  0.720000D+00           1.0000000
            ****
            -S     0
            S   8   1.00
                  0.134700D+06           0.226231D-03
                  0.201904D+05           0.175488D-02
                  0.459528D+04           0.914190D-02
                  0.130109D+04           0.373551D-01
                  0.423902D+03           0.123121D+00
                  0.152485D+03           0.306801D+00
                  0.586925D+02           0.500000D+00
                  0.231461D+02           0.354358D+00
            S   3   1.00
                  0.116327D+03          -0.491772D-01
                  0.352841D+02          -0.215962D+00
                  0.677831D+01           0.500000D+00
            S   2   1.00
                  0.360404D+01           0.500000D+00
                  0.164871D+01           0.366278D+00
            S   1   1.00
                  0.421821D+00           1.0000000
            S   1   1.00
                  0.147554D+00           1.0000000
            P   7   1.00
                  0.104863D+04           0.105273D-02
                  0.248717D+03           0.879338D-02
                  0.797887D+02           0.453358D-01
                  0.296023D+02           0.154476D+00
                  0.120627D+02           0.352366D+00
                  0.507628D+01           0.500000D+00
                  0.213375D+01           0.346429D+00
            P   2   1.00
                  0.928958D+01          -0.185932D-01
                  0.837819D+00           0.500000D+00
            P   1   1.00
                  0.301495D+00           1.0000000
            P   1   1.00
                  0.974740D-01           1.0000000
            D   1   1.00
                  0.210000D+01           1.0000000
            D   1   1.00
                  0.480000D+00           1.0000000
            F   1   1.00
                  0.660000D+00           1.0000000
            ****
            -Br     0
            S    10   1.00
                  0.233625D+07           0.532336D-04
                  0.349961D+06           0.413715D-03
                  0.796444D+05           0.217123D-02
                  0.225555D+05           0.910109D-02
                  0.735546D+04           0.323789D-01
                  0.265352D+04           0.988755D-01
                  0.103517D+04           0.248138D+00
                  0.422205D+03           0.474328D+00
                  0.180035D+03           0.500000D+00
                  0.793308D+02           0.187769D+00
            S    4   1.00
                  0.620834D+03          -0.226511D-01
                  0.190829D+03          -0.109497D+00
                  0.312505D+02           0.500000D+00
                  0.135270D+02           0.492812D+00
            S    2   1.00
                  0.216097D+02          -0.165418D+00
                  0.372566D+01           0.500000D+00
            S    1   1.00
                  0.169770D+01           1.0000000
            S    1   1.00
                  0.489332D+00           1.0000000
            S    1   1.00
                  0.175712D+00           1.0000000
            P    8   1.00
                  0.960829D+04           0.478974D-03
                  0.227618D+04           0.417853D-02
                  0.736723D+03           0.229315D-01
                  0.281579D+03           0.892653D-01
                  0.118395D+03           0.255288D+00
                  0.527481D+02           0.479074D+00
                  0.245098D+02           0.500000D+00
                  0.112009D+02           0.200944D+00
            P    4   1.00
                  0.587849D+02          -0.189674D-01
                  0.918962D+01           0.264104D+00
                  0.413895D+01           0.500000D+00
                  0.184225D+01           0.319316D+00
            P    1   1.00
                  0.713862D+00           1.0000000
            P    1   1.00
                  0.274232D+00           1.0000000
            P    1   1.00
                  0.944411D-01           1.0000000
            D    7   1.00
                  0.398470D+03           0.204066D-02
                  0.118967D+03           0.175171D-01
                  0.450197D+02           0.829708D-01
                  0.190320D+02           0.236284D+00
                  0.855686D+01           0.428468D+00
                  0.382950D+01           0.500000D+00
                  0.166291D+01           0.349360D+00
            D    1   1.00
                  0.672953D+00           1.0000000
            D    1   1.00
                  0.252000D+00           1.0000000
            F    1   1.00
                  0.530000D+00           1.0000000
            ****
            -Si     0
            S    8   1.00
                  0.996133D+05           0.235546D-03
                  0.149311D+05           0.182707D-02
                  0.339820D+04           0.951425D-02
                  0.962140D+03           0.388172D-01
                  0.313430D+03           0.127328D+00
                  0.112683D+03           0.313522D+00
                  0.433372D+02           0.500000D+00
                  0.170029D+02           0.340347D+00
            S    3   1.00
                  0.884208D+02          -0.404451D-01
                  0.266756D+02          -0.178059D+00
                  0.479640D+01           0.500000D+00
            S    2   1.00
                  0.239385D+01           0.500000D+00
                  0.108333D+01           0.338016D+00
            S    1   1.00
                  0.252420D+00           1.0000000
            S    1   1.00
                  0.891210D-01           1.0000000
            P    7   1.00
                  0.709901D+03           0.123028D-02
                  0.168426D+03           0.101366D-01
                  0.539946D+02           0.511840D-01
                  0.198646D+02           0.169967D+00
                  0.801369D+01           0.370717D+00
                  0.331870D+01           0.500000D+00
                  0.136112D+01           0.344128D+00
            P    2   1.00
                  0.622158D+01          -0.166609D-01
                  0.503049D+00           0.500000D+00
            P    1   1.00
                  0.179848D+00           1.0000000
            P    1   1.00
                  0.591912D-01           1.0000000
            D    1   1.00
                  0.168000D+01           1.0000000
            D    1   1.00
                  0.380000D+00           1.0000000
            F    1   1.00
                  0.540000D+00           1.0000000
            ****
            -P     0
            S    8   1.00
                  0.116416D+06           0.230715D-03
                  0.174500D+05           0.178960D-02
                  0.397149D+04           0.932116D-02
                  0.112447D+04           0.380591D-01
                  0.366347D+03           0.125148D+00
                  0.131757D+03           0.310022D+00
                  0.506988D+02           0.500000D+00
                  0.199436D+02           0.347528D+00
            S    3   1.00
                  0.101878D+03          -0.446755D-01
                  0.308249D+02          -0.196376D+00
                  0.573688D+01           0.500000D+00
            S    2   1.00
                  0.296868D+01           0.500000D+00
                  0.135315D+01           0.355098D+00
            S    1   1.00
                  0.332196D+00           1.0000000
            S    1   1.00
                  0.116229D+00           1.0000000
            P    7   1.00
                  0.873928D+03           0.112375D-02
                  0.207298D+03           0.933330D-02
                  0.664628D+02           0.477213D-01
                  0.245665D+02           0.160733D+00
                  0.996820D+01           0.359760D+00
                  0.416536D+01           0.500000D+00
                  0.173022D+01           0.346593D+00
            P    2   1.00
                  0.772530D+01          -0.175718D-01
                  0.657252D+00           0.500000D+00
            P    1   1.00
                  0.239903D+00           1.0000000
            P    1   1.00
                  0.800988D-01           1.0000000
            D    1   1.00
                  0.189000D+01           1.0000000
            D    1   1.00
                  0.430000D+00           1.0000000
            F    1   1.00
                  0.600000D+00           1.0000000
            ****
            
 Initial command:
 /usr/local/apps/g16_b01_avx/g16/l1.exe "/wrk/irikura/Gau-25467.inp" -scrdir="/wrk/irikura/"
 Entering Link 1 = /usr/local/apps/g16_b01_avx/g16/l1.exe PID=     25469.
  
 Copyright (c) 1988-2017, Gaussian, Inc.  All Rights Reserved.
  
 This is part of the Gaussian(R) 16 program.  It is based on
 the Gaussian(R) 09 system (copyright 2009, Gaussian, Inc.),
 the Gaussian(R) 03 system (copyright 2003, Gaussian, Inc.),
 the Gaussian(R) 98 system (copyright 1998, Gaussian, Inc.),
 the Gaussian(R) 94 system (copyright 1995, Gaussian, Inc.),
 the Gaussian 92(TM) system (copyright 1992, Gaussian, Inc.),
 the Gaussian 90(TM) system (copyright 1990, Gaussian, Inc.),
 the Gaussian 88(TM) system (copyright 1988, Gaussian, Inc.),
 the Gaussian 86(TM) system (copyright 1986, Carnegie Mellon
 University), and the Gaussian 82(TM) system (copyright 1983,
 Carnegie Mellon University). Gaussian is a federally registered
 trademark of Gaussian, Inc.
  
 This software contains proprietary and confidential information,
 including trade secrets, belonging to Gaussian, Inc.
  
 This software is provided under written license and may be
 used, copied, transmitted, or stored only in accord with that
 written license.
  
 The following legend is applicable only to US Government
 contracts under FAR:
  
                    RESTRICTED RIGHTS LEGEND
  
 Use, reproduction and disclosure by the US Government is
 subject to restrictions as set forth in subparagraphs (a)
 and (c) of the Commercial Computer Software - Restricted
 Rights clause in FAR 52.227-19.
  
 Gaussian, Inc.
 340 Quinnipiac St., Bldg. 40, Wallingford CT 06492
  
  
 ---------------------------------------------------------------
 Warning -- This program may not be used in any manner that
 competes with the business of Gaussian, Inc. or will provide
 assistance to any competitor of Gaussian, Inc.  The licensee
 of this program is prohibited from giving any competitor of
 Gaussian, Inc. access to this program.  By using this program,
 the user acknowledges that Gaussian, Inc. is engaged in the
 business of creating and licensing software in the field of
 computational chemistry and represents and warrants to the
 licensee that it is not a competitor of Gaussian, Inc. and that
 it will not use this program in any manner prohibited above.
 ---------------------------------------------------------------
  

 Cite this work as:
 Gaussian 16, Revision B.01,
 M. J. Frisch, G. W. Trucks, H. B. Schlegel, G. E. Scuseria, 
 M. A. Robb, J. R. Cheeseman, G. Scalmani, V. Barone, 
 G. A. Petersson, H. Nakatsuji, X. Li, M. Caricato, A. V. Marenich, 
 J. Bloino, B. G. Janesko, R. Gomperts, B. Mennucci, H. P. Hratchian, 
 J. V. Ortiz, A. F. Izmaylov, J. L. Sonnenberg, D. Williams-Young, 
 F. Ding, F. Lipparini, F. Egidi, J. Goings, B. Peng, A. Petrone, 
 T. Henderson, D. Ranasinghe, V. G. Zakrzewski, J. Gao, N. Rega, 
 G. Zheng, W. Liang, M. Hada, M. Ehara, K. Toyota, R. Fukuda, 
 J. Hasegawa, M. Ishida, T. Nakajima, Y. Honda, O. Kitao, H. Nakai, 
 T. Vreven, K. Throssell, J. A. Montgomery, Jr., J. E. Peralta, 
 F. Ogliaro, M. J. Bearpark, J. J. Heyd, E. N. Brothers, K. N. Kudin, 
 V. N. Staroverov, T. A. Keith, R. Kobayashi, J. Normand, 
 K. Raghavachari, A. P. Rendell, J. C. Burant, S. S. Iyengar, 
 J. Tomasi, M. Cossi, J. M. Millam, M. Klene, C. Adamo, R. Cammi, 
 J. W. Ochterski, R. L. Martin, K. Morokuma, O. Farkas, 
 J. B. Foresman, and D. J. Fox, Gaussian, Inc., Wallingford CT, 2016.
 
 ******************************************
 Gaussian 16:  ES64L-G16RevB.01 20-Dec-2017
                17-Jun-2022 
 ******************************************
 %mem=1000mw
 %nprocs=12
 Will use up to   12 processors via shared memory.
 --------------------
 # b3lyp/gen opt freq
 --------------------
 1/18=20,19=15,26=3,38=1/1,3;
 2/9=110,12=2,17=6,18=5,40=1/2;
 3/5=7,11=2,25=1,30=1,71=1,74=-5/1,2,3;
 4//1;
 5/5=2,38=5/2;
 6/7=2,8=2,9=2,10=2,28=1/1;
 7//1,2,3,16;
 1/18=20,19=15,26=3/3(2);
 2/9=110/2;
 99//99;
 2/9=110/2;
 3/5=7,6=1,11=2,25=1,30=1,71=1,74=-5,82=7/1,2,3;
 4/5=5,16=3,69=1/1;
 5/5=2,38=5/2;
 7//1,2,3,16;
 1/18=20,19=15,26=3/3(-5);
 2/9=110/2;
 6/7=2,8=2,9=2,10=2,19=2,28=1/1;
 99/9=1/99;
 -------------------------------
 ammonium radical, B3LYP/pcseg-2
 -------------------------------
 Symbolic Z-matrix:
 Charge =  0 Multiplicity = 2
 N                     0.        0.        0. 
 H                     0.60102   0.60102   0.60102 
 H                    -0.60102  -0.60102   0.60102 
 H                    -0.60102   0.60102  -0.60102 
 H                     0.60102  -0.60102  -0.60102 
 

 GradGradGradGradGradGradGradGradGradGradGradGradGradGradGradGradGradGrad
 Berny optimization.
 Initialization pass.
                           ----------------------------
                           !    Initial Parameters    !
                           ! (Angstroms and Degrees)  !
 --------------------------                            --------------------------
 ! Name  Definition              Value          Derivative Info.                !
 --------------------------------------------------------------------------------
 ! R1    R(1,2)                  1.041          estimate D2E/DX2                !
 ! R2    R(1,3)                  1.041          estimate D2E/DX2                !
 ! R3    R(1,4)                  1.041          estimate D2E/DX2                !
 ! R4    R(1,5)                  1.041          estimate D2E/DX2                !
 ! A1    A(2,1,3)              109.4712         estimate D2E/DX2                !
 ! A2    A(2,1,4)              109.4712         estimate D2E/DX2                !
 ! A3    A(2,1,5)              109.4712         estimate D2E/DX2                !
 ! A4    A(3,1,4)              109.4712         estimate D2E/DX2                !
 ! A5    A(3,1,5)              109.4712         estimate D2E/DX2                !
 ! A6    A(4,1,5)              109.4712         estimate D2E/DX2                !
 ! D1    D(2,1,4,3)           -120.0            estimate D2E/DX2                !
 ! D2    D(2,1,5,3)            120.0            estimate D2E/DX2                !
 ! D3    D(2,1,5,4)           -120.0            estimate D2E/DX2                !
 ! D4    D(3,1,5,4)            120.0            estimate D2E/DX2                !
 --------------------------------------------------------------------------------
 Trust Radius=3.00D-01 FncErr=1.00D-07 GrdErr=1.00D-06 EigMax=2.50D+02 EigMin=1.00D-04
 Number of steps in this run=     24 maximum allowed number of steps=    100.
 GradGradGradGradGradGradGradGradGradGradGradGradGradGradGradGradGradGrad

                          Input orientation:                          
 ---------------------------------------------------------------------
 Center     Atomic      Atomic             Coordinates (Angstroms)
 Number     Number       Type             X           Y           Z
 ---------------------------------------------------------------------
      1          7           0        0.000000    0.000000    0.000000
      2          1           0        0.601022    0.601022    0.601022
      3          1           0       -0.601022   -0.601022    0.601022
      4          1           0       -0.601022    0.601022   -0.601022
      5          1           0        0.601022   -0.601022   -0.601022
 ---------------------------------------------------------------------
                    Distance matrix (angstroms):
                    1          2          3          4          5
     1  N    0.000000
     2  H    1.041001   0.000000
     3  H    1.041001   1.699947   0.000000
     4  H    1.041001   1.699947   1.699947   0.000000
     5  H    1.041001   1.699947   1.699947   1.699947   0.000000
 Stoichiometry    H4N(2)
 Framework group  TD[O(N),4C3(H)]
 Deg. of freedom     1
 Full point group                 TD      NOp  24
 Largest Abelian subgroup         D2      NOp   4
 Largest concise Abelian subgroup D2      NOp   4
                         Standard orientation:                         
 ---------------------------------------------------------------------
 Center     Atomic      Atomic             Coordinates (Angstroms)
 Number     Number       Type             X           Y           Z
 ---------------------------------------------------------------------
      1          7           0        0.000000    0.000000    0.000000
      2          1           0        0.601022    0.601022    0.601022
      3          1           0       -0.601022   -0.601022    0.601022
      4          1           0       -0.601022    0.601022   -0.601022
      5          1           0        0.601022   -0.601022   -0.601022
 ---------------------------------------------------------------------
 Rotational constants (GHZ):         173.5247114         173.5247114         173.5247114
 General basis read from cards:  (5D, 7F)
 There are    26 symmetry adapted cartesian basis functions of A   symmetry.
 There are    23 symmetry adapted cartesian basis functions of B1  symmetry.
 There are    23 symmetry adapted cartesian basis functions of B2  symmetry.
 There are    23 symmetry adapted cartesian basis functions of B3  symmetry.
 There are    23 symmetry adapted basis functions of A   symmetry.
 There are    21 symmetry adapted basis functions of B1  symmetry.
 There are    21 symmetry adapted basis functions of B2  symmetry.
 There are    21 symmetry adapted basis functions of B3  symmetry.
    86 basis functions,   123 primitive gaussians,    95 cartesian basis functions
     6 alpha electrons        5 beta electrons
       nuclear repulsion energy        16.1011266272 Hartrees.
 NAtoms=    5 NActive=    5 NUniq=    2 SFac= 4.00D+00 NAtFMM=   60 NAOKFM=F Big=F
 Integral buffers will be    131072 words long.
 Raffenetti 2 integral format.
 Two-electron integral symmetry is turned on.
 One-electron integrals computed using PRISM.
 NBasis=    86 RedAO= T EigKep=  1.55D-03  NBF=    23    21    21    21
 NBsUse=    86 1.00D-06 EigRej= -1.00D+00 NBFU=    23    21    21    21
 ExpMin= 7.42D-02 ExpMax= 1.02D+04 ExpMxC= 3.47D+02 IAcc=3 IRadAn=         5 AccDes= 0.00D+00
 Harris functional with IExCor=  402 and IRadAn=       5 diagonalized for initial guess.
 HarFok:  IExCor=  402 AccDes= 0.00D+00 IRadAn=         5 IDoV= 1 UseB2=F ITyADJ=14
 ICtDFT=  3500011 ScaDFX=  1.000000  1.000000  1.000000  1.000000
 FoFCou: FMM=F IPFlag=           0 FMFlag=      100000 FMFlg1=           0
         NFxFlg=           0 DoJE=T BraDBF=F KetDBF=T FulRan=T
         wScrn=  0.000000 ICntrl=       500 IOpCl=  0 I1Cent=   200000004 NGrid=           0
         NMat0=    1 NMatS0=      1 NMatT0=    0 NMatD0=    1 NMtDS0=    0 NMtDT0=    0
 Petite list used in FoFCou.
 Initial guess orbital symmetries:
 Alpha Orbitals:
       Occupied  (A1) (A1) (T2) (T2) (T2) (A1)
       Virtual   (T2) (T2) (T2) (T2) (T2) (T2) (A1) (T2) (T2) (T2)
                 (A1) (E) (E) (T2) (T2) (T2) (T1) (T1) (T1) (T2)
                 (T2) (T2) (A1) (T2) (T2) (T2) (A1) (E) (E) (T2)
                 (T2) (T2) (T2) (T2) (T2) (A1) (T1) (T1) (T1) (T2)
                 (T2) (T2) (E) (E) (T1) (T1) (T1) (E) (E) (T2)
                 (T2) (T2) (T2) (T2) (T2) (A1) (T1) (T1) (T1) (T2)
                 (T2) (T2) (A1) (T2) (T2) (T2) (E) (E) (E) (E)
                 (T1) (T1) (T1) (T2) (T2) (T2) (A1) (T2) (T2) (T2)
 Beta  Orbitals:
       Occupied  (A1) (A1) (T2) (T2) (T2)
       Virtual   (A1) (T2) (T2) (T2) (T2) (T2) (T2) (A1) (T2) (T2)
                 (T2) (A1) (E) (E) (T2) (T2) (T2) (T1) (T1) (T1)
                 (T2) (T2) (T2) (A1) (T2) (T2) (T2) (A1) (E) (E)
                 (T2) (T2) (T2) (T2) (T2) (T2) (A1) (T1) (T1) (T1)
                 (T2) (T2) (T2) (E) (E) (T1) (T1) (T1) (E) (E)
                 (T2) (T2) (T2) (T2) (T2) (T2) (A1) (T1) (T1) (T1)
                 (T2) (T2) (T2) (A1) (T2) (T2) (T2) (E) (E) (E)
                 (E) (T1) (T1) (T1) (T2) (T2) (T2) (A1) (T2) (T2)
                 (T2)
 The electronic state of the initial guess is 2-A1.
 Initial guess <Sx>= 0.0000 <Sy>= 0.0000 <Sz>= 0.5000 <S**2>= 0.7500 S= 0.5000
 Keep R1 and R2 ints in memory in symmetry-blocked form, NReq=18031139.
 Requested convergence on RMS density matrix=1.00D-08 within 128 cycles.
 Requested convergence on MAX density matrix=1.00D-06.
 Requested convergence on             energy=1.00D-06.
 No special actions if energy rises.
 Integral accuracy reduced to 1.0D-05 until final iterations.
 Initial convergence to 1.0D-05 achieved.  Increase integral accuracy.
 SCF Done:  E(UB3LYP) =  -57.0939955291     A.U. after   10 cycles
            NFock= 10  Conv=0.45D-08     -V/T= 2.0029
 <Sx>= 0.0000 <Sy>= 0.0000 <Sz>= 0.5000 <S**2>= 0.7502 S= 0.5001
 <L.S>=  0.00000000000    
 Annihilation of the first spin contaminant:
 S**2 before annihilation     0.7502,   after     0.7500

 **********************************************************************

            Population analysis using the SCF Density.

 **********************************************************************

 Orbital symmetries:
 Alpha Orbitals:
       Occupied  (A1) (A1) (T2) (T2) (T2) (A1)
       Virtual   (T2) (T2) (T2) (T2) (T2) (T2) (A1) (T2) (T2) (T2)
                 (A1) (E) (E) (T2) (T2) (T2) (T1) (T1) (T1) (T2)
                 (T2) (T2) (A1) (T2) (T2) (T2) (A1) (E) (E) (T2)
                 (T2) (T2) (T2) (T2) (T2) (A1) (T1) (T1) (T1) (T2)
                 (T2) (T2) (E) (E) (T1) (T1) (T1) (E) (E) (T2)
                 (T2) (T2) (T2) (T2) (T2) (A1) (T1) (T1) (T1) (T2)
                 (T2) (T2) (A1) (T2) (T2) (T2) (E) (E) (E) (E)
                 (T1) (T1) (T1) (T2) (T2) (T2) (T2) (T2) (T2) (A1)
 Beta  Orbitals:
       Occupied  (A1) (A1) (T2) (T2) (T2)
       Virtual   (A1) (T2) (T2) (T2) (T2) (T2) (T2) (A1) (T2) (T2)
                 (T2) (A1) (E) (E) (T2) (T2) (T2) (T1) (T1) (T1)
                 (T2) (T2) (T2) (A1) (T2) (T2) (T2) (A1) (E) (E)
                 (T2) (T2) (T2) (T2) (T2) (T2) (A1) (T1) (T1) (T1)
                 (T2) (T2) (T2) (E) (E) (T1) (T1) (T1) (E) (E)
                 (T2) (T2) (T2) (T2) (T2) (T2) (A1) (T1) (T1) (T1)
                 (T2) (T2) (T2) (A1) (T2) (T2) (T2) (E) (E) (E)
                 (E) (T1) (T1) (T1) (T2) (T2) (T2) (T2) (T2) (T2)
                 (A1)
 The electronic state is 2-A1.
 Alpha  occ. eigenvalues --  -14.42364  -0.98498  -0.56561  -0.56561  -0.56561
 Alpha  occ. eigenvalues --   -0.09470
 Alpha virt. eigenvalues --    0.01943   0.01943   0.01943   0.14927   0.14927
 Alpha virt. eigenvalues --    0.14927   0.28316   0.33160   0.33160   0.33160
 Alpha virt. eigenvalues --    0.45883   0.51118   0.51118   0.89375   0.89375
 Alpha virt. eigenvalues --    0.89375   0.94109   0.94109   0.94109   1.19363
 Alpha virt. eigenvalues --    1.19363   1.19363   1.24001   1.31867   1.31867
 Alpha virt. eigenvalues --    1.31867   1.63638   1.68587   1.68587   1.81322
 Alpha virt. eigenvalues --    1.81322   1.81322   2.90826   2.90826   2.90826
 Alpha virt. eigenvalues --    3.14590   3.34576   3.34576   3.34576   3.43844
 Alpha virt. eigenvalues --    3.43844   3.43844   3.64484   3.64484   3.78828
 Alpha virt. eigenvalues --    3.78828   3.78828   4.10150   4.10150   4.19176
 Alpha virt. eigenvalues --    4.19176   4.19176   4.44457   4.44457   4.44457
 Alpha virt. eigenvalues --    4.60438   4.61318   4.61318   4.61318   4.79334
 Alpha virt. eigenvalues --    4.79334   4.79334   5.08857   5.16573   5.16573
 Alpha virt. eigenvalues --    5.16573   5.34278   5.34278   5.89053   5.89053
 Alpha virt. eigenvalues --    6.04672   6.04672   6.04672   6.33644   6.33644
 Alpha virt. eigenvalues --    6.33644   6.50652   6.50652   6.50652   6.51224
  Beta  occ. eigenvalues --  -14.41762  -0.97535  -0.55869  -0.55869  -0.55869
  Beta virt. eigenvalues --   -0.03849   0.03952   0.03952   0.03952   0.15905
  Beta virt. eigenvalues --    0.15905   0.15905   0.30072   0.34255   0.34255
  Beta virt. eigenvalues --    0.34255   0.46604   0.51808   0.51808   0.90128
  Beta virt. eigenvalues --    0.90128   0.90128   0.95115   0.95115   0.95115
  Beta virt. eigenvalues --    1.20299   1.20299   1.20299   1.24901   1.33031
  Beta virt. eigenvalues --    1.33031   1.33031   1.65048   1.69275   1.69275
  Beta virt. eigenvalues --    1.82075   1.82075   1.82075   2.91335   2.91335
  Beta virt. eigenvalues --    2.91335   3.15116   3.34931   3.34931   3.34931
  Beta virt. eigenvalues --    3.44705   3.44705   3.44705   3.64997   3.64997
  Beta virt. eigenvalues --    3.79356   3.79356   3.79356   4.11109   4.11109
  Beta virt. eigenvalues --    4.19687   4.19687   4.19687   4.45098   4.45098
  Beta virt. eigenvalues --    4.45098   4.61609   4.62407   4.62407   4.62407
  Beta virt. eigenvalues --    4.80246   4.80246   4.80246   5.09608   5.17578
  Beta virt. eigenvalues --    5.17578   5.17578   5.35207   5.35207   5.89693
  Beta virt. eigenvalues --    5.89693   6.05333   6.05333   6.05333   6.34519
  Beta virt. eigenvalues --    6.34519   6.34519   6.51289   6.51289   6.51289
  Beta virt. eigenvalues --    6.51908
          Condensed to atoms (all electrons):
               1          2          3          4          5
     1  N    8.521743  -0.512267  -0.512267  -0.512267  -0.512267
     2  H   -0.512267   0.872361   0.257246   0.257246   0.257246
     3  H   -0.512267   0.257246   0.872361   0.257246   0.257246
     4  H   -0.512267   0.257246   0.257246   0.872361   0.257246
     5  H   -0.512267   0.257246   0.257246   0.257246   0.872361
          Atomic-Atomic Spin Densities.
               1          2          3          4          5
     1  N    3.061479  -0.890922  -0.890922  -0.890922  -0.890922
     2  H   -0.890922   0.465511   0.266987   0.266987   0.266987
     3  H   -0.890922   0.266987   0.465511   0.266987   0.266987
     4  H   -0.890922   0.266987   0.266987   0.465511   0.266987
     5  H   -0.890922   0.266987   0.266987   0.266987   0.465511
 Mulliken charges and spin densities:
               1          2
     1  N    0.527324  -0.502207
     2  H   -0.131831   0.375552
     3  H   -0.131831   0.375552
     4  H   -0.131831   0.375552
     5  H   -0.131831   0.375552
 Sum of Mulliken charges =   0.00000   1.00000
 Mulliken charges and spin densities with hydrogens summed into heavy atoms:
               1          2
     1  N    0.000000   1.000000
 Electronic spatial extent (au):  <R**2>=             44.1109
 Charge=              0.0000 electrons
 Dipole moment (field-independent basis, Debye):
    X=             -0.0000    Y=             -0.0000    Z=             -0.0000  Tot=              0.0000
 Quadrupole moment (field-independent basis, Debye-Ang):
   XX=            -12.8367   YY=            -12.8367   ZZ=            -12.8367
   XY=             -0.0000   XZ=              0.0000   YZ=              0.0000
 Traceless Quadrupole moment (field-independent basis, Debye-Ang):
   XX=              0.0000   YY=             -0.0000   ZZ=              0.0000
   XY=             -0.0000   XZ=              0.0000   YZ=              0.0000
 Octapole moment (field-independent basis, Debye-Ang**2):
  XXX=             -0.0000  YYY=              0.0000  ZZZ=              0.0000  XYY=             -0.0000
  XXY=              0.0000  XXZ=             -0.0000  XZZ=             -0.0000  YZZ=              0.0000
  YYZ=             -0.0000  XYZ=              0.2622
 Hexadecapole moment (field-independent basis, Debye-Ang**3):
 XXXX=            -43.3908 YYYY=            -43.3908 ZZZZ=            -43.3908 XXXY=              0.0000
 XXXZ=             -0.0000 YYYX=             -0.0000 YYYZ=              0.0000 ZZZX=              0.0000
 ZZZY=             -0.0000 XXYY=            -14.1165 XXZZ=            -14.1165 YYZZ=            -14.1165
 XXYZ=             -0.0000 YYXZ=             -0.0000 ZZXY=             -0.0000
 N-N= 1.610112662720D+01 E-N=-1.642268676075D+02  KE= 5.693040138220D+01
 Symmetry A    KE= 4.848300546248D+01
 Symmetry B1   KE= 2.815798639907D+00
 Symmetry B2   KE= 2.815798639907D+00
 Symmetry B3   KE= 2.815798639907D+00
 Symmetry A    SP= 1.000000000000D+00
 Symmetry B1   SP=-6.383887582499D-15
 Symmetry B2   SP=-6.325982610279D-15
 Symmetry B3   SP=-6.323609912176D-15
                          Isotropic Fermi Contact Couplings
        Atom                 a.u.       MegaHertz       Gauss      10(-4) cm-1
     1  N(14)              0.94758     306.16790     109.24832     102.12662
     2  H(1)               0.00390      17.43262       6.22039       5.81489
     3  H(1)               0.00390      17.43262       6.22039       5.81489
     4  H(1)               0.00390      17.43262       6.22039       5.81489
     5  H(1)               0.00390      17.43262       6.22039       5.81489
 --------------------------------------------------------
       Center         ----  Spin Dipole Couplings  ----
                      3XX-RR        3YY-RR        3ZZ-RR
 --------------------------------------------------------
     1   Atom        0.000000      0.000000     -0.000000
     2   Atom        0.000000      0.000000     -0.000000
     3   Atom        0.000000      0.000000     -0.000000
     4   Atom        0.000000      0.000000     -0.000000
     5   Atom        0.000000     -0.000000      0.000000
 --------------------------------------------------------
                        XY            XZ            YZ
 --------------------------------------------------------
     1   Atom       -0.000000     -0.000000     -0.000000
     2   Atom        0.013402      0.013402      0.013402
     3   Atom        0.013402     -0.013402     -0.013402
     4   Atom       -0.013402      0.013402     -0.013402
     5   Atom       -0.013402     -0.013402      0.013402
 --------------------------------------------------------


 ---------------------------------------------------------------------------------
              Anisotropic Spin Dipole Couplings in Principal Axis System
 ---------------------------------------------------------------------------------

       Atom             a.u.   MegaHertz   Gauss  10(-4) cm-1        Axes

              Baa    -0.0000    -0.000    -0.000    -0.000  0.6105  0.4139  0.6753
     1 N(14)  Bbb     0.0000     0.000     0.000     0.000 -0.3527 -0.6214  0.6997
              Bcc     0.0000     0.000     0.000     0.000  0.7092 -0.6653 -0.2334
 
              Baa    -0.0134    -7.151    -2.552    -2.385 -0.4705  0.8132 -0.3427
     2 H(1)   Bbb    -0.0134    -7.151    -2.552    -2.385 -0.6673 -0.0738  0.7411
              Bcc     0.0268    14.302     5.103     4.771  0.5774  0.5774  0.5774
 
              Baa    -0.0134    -7.151    -2.552    -2.385  0.7703 -0.1506  0.6197
     3 H(1)   Bbb    -0.0134    -7.151    -2.552    -2.385 -0.2708  0.8025  0.5316
              Bcc     0.0268    14.302     5.103     4.771  0.5774  0.5774 -0.5774
 
              Baa    -0.0134    -7.151    -2.552    -2.385  0.8118  0.3303 -0.4815
     4 H(1)   Bbb    -0.0134    -7.151    -2.552    -2.385  0.0873  0.7467  0.6594
              Bcc     0.0268    14.302     5.103     4.771  0.5774 -0.5774  0.5774
 
              Baa    -0.0134    -7.151    -2.552    -2.385  0.2321 -0.5619  0.7940
     5 H(1)   Bbb    -0.0134    -7.151    -2.552    -2.385  0.7828  0.5924  0.1904
              Bcc     0.0268    14.302     5.103     4.771  0.5774 -0.5774 -0.5774
 

 ---------------------------------------------------------------------------------

 Calling FoFJK, ICntrl=      2127 FMM=F ISym2X=1 I1Cent= 0 IOpClX= 1 NMat=1 NMatS=1 NMatT=0.
 ***** Axes restored to original set *****
 -------------------------------------------------------------------
 Center     Atomic                   Forces (Hartrees/Bohr)
 Number     Number              X              Y              Z
 -------------------------------------------------------------------
      1        7          -0.000000000   -0.000000000    0.000000000
      2        1           0.002797585    0.002797585    0.002797585
      3        1          -0.002797585   -0.002797585    0.002797585
      4        1          -0.002797585    0.002797585   -0.002797585
      5        1           0.002797585   -0.002797585   -0.002797585
 -------------------------------------------------------------------
 Cartesian Forces:  Max     0.002797585 RMS     0.002502236

 GradGradGradGradGradGradGradGradGradGradGradGradGradGradGradGradGradGrad
 Berny optimization.
 FormGI is forming the generalized inverse of G from B-inverse, IUseBI=4.
 Internal  Forces:  Max     0.004845559 RMS     0.002590060
 Search for a local minimum.
 Step number   1 out of a maximum of   24
 All quantities printed in internal units (Hartrees-Bohrs-Radians)
 Mixed Optimization -- RFO/linear search
 Second derivative matrix not updated -- first step.
 The second derivative matrix:
                          R1        R2        R3        R4        A1
           R1           0.41150
           R2           0.00000   0.41150
           R3           0.00000   0.00000   0.41150
           R4           0.00000   0.00000   0.00000   0.41150
           A1           0.00000   0.00000   0.00000   0.00000   0.16000
           A2           0.00000   0.00000   0.00000   0.00000   0.00000
           A3           0.00000   0.00000   0.00000   0.00000   0.00000
           A4           0.00000   0.00000   0.00000   0.00000   0.00000
           A5           0.00000   0.00000   0.00000   0.00000   0.00000
           A6           0.00000   0.00000   0.00000   0.00000   0.00000
           D1           0.00000   0.00000   0.00000   0.00000   0.00000
           D2           0.00000   0.00000   0.00000   0.00000   0.00000
           D3           0.00000   0.00000   0.00000   0.00000   0.00000
           D4           0.00000   0.00000   0.00000   0.00000   0.00000
                          A2        A3        A4        A5        A6
           A2           0.16000
           A3           0.00000   0.16000
           A4           0.00000   0.00000   0.16000
           A5           0.00000   0.00000   0.00000   0.16000
           A6           0.00000   0.00000   0.00000   0.00000   0.16000
           D1           0.00000   0.00000   0.00000   0.00000   0.00000
           D2           0.00000   0.00000   0.00000   0.00000   0.00000
           D3           0.00000   0.00000   0.00000   0.00000   0.00000
           D4           0.00000   0.00000   0.00000   0.00000   0.00000
                          D1        D2        D3        D4
           D1           0.00486
           D2           0.00000   0.00486
           D3           0.00000   0.00000   0.00486
           D4           0.00000   0.00000   0.00000   0.00486
 ITU=  0
     Eigenvalues ---    0.05260   0.05882   0.08760   0.16000   0.16000
     Eigenvalues ---    0.41150   0.41150   0.41150   0.41150
 RFO step:  Lambda=-2.28108664D-04 EMin= 5.25955389D-02
 Linear search not attempted -- first point.
 Iteration  1 RMS(Cart)=  0.00629077 RMS(Int)=  0.00000000
 Iteration  2 RMS(Cart)=  0.00000000 RMS(Int)=  0.00000000
 ClnCor:  largest displacement from symmetrization is 1.91D-14 for atom     3.
 Variable       Old X    -DE/DX   Delta X   Delta X   Delta X     New X
                                 (Linear)    (Quad)   (Total)
    R1        1.96721   0.00485   0.00000   0.01177   0.01177   1.97898
    R2        1.96721   0.00485   0.00000   0.01177   0.01177   1.97898
    R3        1.96721   0.00485   0.00000   0.01177   0.01177   1.97898
    R4        1.96721   0.00485   0.00000   0.01177   0.01177   1.97898
    A1        1.91063   0.00000   0.00000   0.00000   0.00000   1.91063
    A2        1.91063   0.00000   0.00000  -0.00000  -0.00000   1.91063
    A3        1.91063  -0.00000   0.00000  -0.00000  -0.00000   1.91063
    A4        1.91063   0.00000   0.00000   0.00000  -0.00000   1.91063
    A5        1.91063   0.00000   0.00000   0.00000   0.00000   1.91063
    A6        1.91063  -0.00000   0.00000  -0.00000   0.00000   1.91063
    D1       -2.09440  -0.00000   0.00000  -0.00000  -0.00000  -2.09440
    D2        2.09440   0.00000   0.00000   0.00000   0.00000   2.09440
    D3       -2.09440   0.00000   0.00000   0.00000   0.00000  -2.09440
    D4        2.09440   0.00000   0.00000   0.00000   0.00000   2.09440
         Item               Value     Threshold  Converged?
 Maximum Force            0.004846     0.000450     NO 
 RMS     Force            0.002590     0.000300     NO 
 Maximum Displacement     0.006795     0.001800     NO 
 RMS     Displacement     0.006291     0.001200     NO 
 Predicted change in Energy=-1.141176D-04
 GradGradGradGradGradGradGradGradGradGradGradGradGradGradGradGradGradGrad

                          Input orientation:                          
 ---------------------------------------------------------------------
 Center     Atomic      Atomic             Coordinates (Angstroms)
 Number     Number       Type             X           Y           Z
 ---------------------------------------------------------------------
      1          7           0        0.000000   -0.000000   -0.000000
      2          1           0        0.604618    0.604618    0.604618
      3          1           0       -0.604618   -0.604618    0.604618
      4          1           0       -0.604618    0.604618   -0.604618
      5          1           0        0.604618   -0.604618   -0.604618
 ---------------------------------------------------------------------
                    Distance matrix (angstroms):
                    1          2          3          4          5
     1  N    0.000000
     2  H    1.047229   0.000000
     3  H    1.047229   1.710117   0.000000
     4  H    1.047229   1.710117   1.710117   0.000000
     5  H    1.047229   1.710117   1.710117   1.710117   0.000000
 Stoichiometry    H4N(2)
 Framework group  TD[O(N),4C3(H)]
 Deg. of freedom     1
 Full point group                 TD      NOp  24
 Largest Abelian subgroup         D2      NOp   4
 Largest concise Abelian subgroup D2      NOp   4
                         Standard orientation:                         
 ---------------------------------------------------------------------
 Center     Atomic      Atomic             Coordinates (Angstroms)
 Number     Number       Type             X           Y           Z
 ---------------------------------------------------------------------
      1          7           0        0.000000    0.000000    0.000000
      2          1           0        0.604618    0.604618    0.604618
      3          1           0       -0.604618   -0.604618    0.604618
      4          1           0       -0.604618    0.604618   -0.604618
      5          1           0        0.604618   -0.604618   -0.604618
 ---------------------------------------------------------------------
 Rotational constants (GHZ):         171.4669468         171.4669468         171.4669468
 Basis read from rwf:  (5D, 7F)
 There are    26 symmetry adapted cartesian basis functions of A   symmetry.
 There are    23 symmetry adapted cartesian basis functions of B1  symmetry.
 There are    23 symmetry adapted cartesian basis functions of B2  symmetry.
 There are    23 symmetry adapted cartesian basis functions of B3  symmetry.
 There are    23 symmetry adapted basis functions of A   symmetry.
 There are    21 symmetry adapted basis functions of B1  symmetry.
 There are    21 symmetry adapted basis functions of B2  symmetry.
 There are    21 symmetry adapted basis functions of B3  symmetry.
    86 basis functions,   123 primitive gaussians,    95 cartesian basis functions
     6 alpha electrons        5 beta electrons
       nuclear repulsion energy        16.0053732853 Hartrees.
 NAtoms=    5 NActive=    5 NUniq=    2 SFac= 4.00D+00 NAtFMM=   60 NAOKFM=F Big=F
 Integral buffers will be    131072 words long.
 Raffenetti 2 integral format.
 Two-electron integral symmetry is turned on.
 One-electron integrals computed using PRISM.
 NBasis=    86 RedAO= T EigKep=  1.59D-03  NBF=    23    21    21    21
 NBsUse=    86 1.00D-06 EigRej= -1.00D+00 NBFU=    23    21    21    21
 Initial guess from the checkpoint file:  "/wrk/irikura/Gau-25469.chk"
 B after Tr=     0.000000    0.000000    0.000000
         Rot=    1.000000    0.000000   -0.000000    0.000000 Ang=   0.00 deg.
 Initial guess orbital symmetries:
 Alpha Orbitals:
       Occupied  (A1) (A1) (T2) (T2) (T2) (A1)
       Virtual   (T2) (T2) (T2) (T2) (T2) (T2) (A1) (T2) (T2) (T2)
                 (A1) (E) (E) (T2) (T2) (T2) (T1) (T1) (T1) (T2)
                 (T2) (T2) (A1) (T2) (T2) (T2) (A1) (E) (E) (T2)
                 (T2) (T2) (T2) (T2) (T2) (A1) (T1) (T1) (T1) (T2)
                 (T2) (T2) (E) (E) (T1) (T1) (T1) (E) (E) (T2)
                 (T2) (T2) (T2) (T2) (T2) (A1) (T1) (T1) (T1) (T2)
                 (T2) (T2) (A1) (T2) (T2) (T2) (E) (E) (E) (E)
                 (T1) (T1) (T1) (T2) (T2) (T2) (T2) (T2) (T2) (A1)
 Beta  Orbitals:
       Occupied  (A1) (A1) (T2) (T2) (T2)
       Virtual   (A1) (T2) (T2) (T2) (T2) (T2) (T2) (A1) (T2) (T2)
                 (T2) (A1) (E) (E) (T2) (T2) (T2) (T1) (T1) (T1)
                 (T2) (T2) (T2) (A1) (T2) (T2) (T2) (A1) (E) (E)
                 (T2) (T2) (T2) (T2) (T2) (T2) (A1) (T1) (T1) (T1)
                 (T2) (T2) (T2) (E) (E) (T1) (T1) (T1) (E) (E)
                 (T2) (T2) (T2) (T2) (T2) (T2) (A1) (T1) (T1) (T1)
                 (T2) (T2) (T2) (A1) (T2) (T2) (T2) (E) (E) (E)
                 (E) (T1) (T1) (T1) (T2) (T2) (T2) (T2) (T2) (T2)
                 (A1)
 Initial guess <Sx>= 0.0000 <Sy>= 0.0000 <Sz>= 0.5000 <S**2>= 0.7503 S= 0.5001
 Keep R1 and R2 ints in memory in symmetry-blocked form, NReq=18031139.
 Requested convergence on RMS density matrix=1.00D-08 within 128 cycles.
 Requested convergence on MAX density matrix=1.00D-06.
 Requested convergence on             energy=1.00D-06.
 No special actions if energy rises.
 SCF Done:  E(UB3LYP) =  -57.0941295684     A.U. after    8 cycles
            NFock=  8  Conv=0.48D-08     -V/T= 2.0034
 <Sx>= 0.0000 <Sy>= 0.0000 <Sz>= 0.5000 <S**2>= 0.7503 S= 0.5001
 <L.S>=  0.00000000000    
 Annihilation of the first spin contaminant:
 S**2 before annihilation     0.7503,   after     0.7500
 Calling FoFJK, ICntrl=      2127 FMM=F ISym2X=1 I1Cent= 0 IOpClX= 1 NMat=1 NMatS=1 NMatT=0.
 ***** Axes restored to original set *****
 -------------------------------------------------------------------
 Center     Atomic                   Forces (Hartrees/Bohr)
 Number     Number              X              Y              Z
 -------------------------------------------------------------------
      1        7          -0.000000000    0.000000000   -0.000000000
      2        1           0.000507193    0.000507193    0.000507193
      3        1          -0.000507193   -0.000507193    0.000507193
      4        1          -0.000507193    0.000507193   -0.000507193
      5        1           0.000507193   -0.000507193   -0.000507193
 -------------------------------------------------------------------
 Cartesian Forces:  Max     0.000507193 RMS     0.000453647

 GradGradGradGradGradGradGradGradGradGradGradGradGradGradGradGradGradGrad
 Berny optimization.
 Using GEDIIS/GDIIS optimizer.
 FormGI is forming the generalized inverse of G from B-inverse, IUseBI=4.
 Internal  Forces:  Max     0.000878484 RMS     0.000469569
 Search for a local minimum.
 Step number   2 out of a maximum of   24
 All quantities printed in internal units (Hartrees-Bohrs-Radians)
 Mixed Optimization -- En-DIIS/RFO-DIIS
 Update second derivatives using D2CorX and points    1    2
 DE= -1.34D-04 DEPred=-1.14D-04 R= 1.17D+00
 TightC=F SS=  1.41D+00  RLast= 2.35D-02 DXNew= 5.0454D-01 7.0614D-02
 Trust test= 1.17D+00 RLast= 2.35D-02 DXMaxT set to 3.00D-01
 The second derivative matrix:
                          R1        R2        R3        R4        A1
           R1           0.39289
           R2          -0.01860   0.39289
           R3          -0.01860  -0.01860   0.39289
           R4          -0.01860  -0.01860  -0.01860   0.39289
           A1          -0.00000  -0.00000  -0.00000  -0.00000   0.16000
           A2           0.00000   0.00000   0.00000   0.00000  -0.00000
           A3          -0.00000  -0.00000  -0.00000  -0.00000   0.00000
           A4           0.00000   0.00000   0.00000   0.00000  -0.00000
           A5           0.00000   0.00000   0.00000   0.00000  -0.00000
           A6          -0.00000  -0.00000  -0.00000  -0.00000   0.00000
           D1          -0.00000  -0.00000  -0.00000  -0.00000   0.00000
           D2          -0.00000  -0.00000  -0.00000  -0.00000   0.00000
           D3           0.00000   0.00000   0.00000   0.00000  -0.00000
           D4           0.00000   0.00000   0.00000   0.00000  -0.00000
                          A2        A3        A4        A5        A6
           A2           0.16000
           A3          -0.00000   0.16000
           A4           0.00000  -0.00000   0.16000
           A5           0.00000  -0.00000   0.00000   0.16000
           A6          -0.00000   0.00000  -0.00000  -0.00000   0.16000
           D1          -0.00000   0.00000  -0.00000  -0.00000   0.00000
           D2          -0.00000   0.00000  -0.00000  -0.00000   0.00000
           D3           0.00000  -0.00000   0.00000   0.00000  -0.00000
           D4           0.00000  -0.00000   0.00000   0.00000  -0.00000
                          D1        D2        D3        D4
           D1           0.00486
           D2           0.00000   0.00486
           D3          -0.00000  -0.00000   0.00486
           D4          -0.00000  -0.00000   0.00000   0.00486
 ITU=  1  0
 Use linear search instead of GDIIS.
     Eigenvalues ---    0.05260   0.05882   0.08760   0.16000   0.16000
     Eigenvalues ---    0.33708   0.41150   0.41150   0.41150
 RFO step:  Lambda= 0.00000000D+00 EMin= 5.25955389D-02
 Quartic linear search produced a step of  0.22763.
 Iteration  1 RMS(Cart)=  0.00143197 RMS(Int)=  0.00000000
 Iteration  2 RMS(Cart)=  0.00000000 RMS(Int)=  0.00000000
 ClnCor:  largest displacement from symmetrization is 2.51D-14 for atom     4.
 Variable       Old X    -DE/DX   Delta X   Delta X   Delta X     New X
                                 (Linear)    (Quad)   (Total)
    R1        1.97898   0.00088   0.00268   0.00000   0.00268   1.98165
    R2        1.97898   0.00088   0.00268  -0.00000   0.00268   1.98165
    R3        1.97898   0.00088   0.00268  -0.00000   0.00268   1.98165
    R4        1.97898   0.00088   0.00268   0.00000   0.00268   1.98165
    A1        1.91063   0.00000  -0.00000   0.00000   0.00000   1.91063
    A2        1.91063  -0.00000   0.00000  -0.00000   0.00000   1.91063
    A3        1.91063  -0.00000   0.00000   0.00000   0.00000   1.91063
    A4        1.91063  -0.00000   0.00000  -0.00000   0.00000   1.91063
    A5        1.91063   0.00000   0.00000   0.00000   0.00000   1.91063
    A6        1.91063   0.00000  -0.00000   0.00000   0.00000   1.91063
    D1       -2.09440   0.00000   0.00000   0.00000  -0.00000  -2.09440
    D2        2.09440   0.00000  -0.00000   0.00000   0.00000   2.09440
    D3       -2.09440   0.00000   0.00000  -0.00000   0.00000  -2.09440
    D4        2.09440  -0.00000   0.00000  -0.00000   0.00000   2.09440
         Item               Value     Threshold  Converged?
 Maximum Force            0.000878     0.000450     NO 
 RMS     Force            0.000470     0.000300     NO 
 Maximum Displacement     0.001547     0.001800     YES
 RMS     Displacement     0.001432     0.001200     NO 
 Predicted change in Energy=-4.575368D-06
 GradGradGradGradGradGradGradGradGradGradGradGradGradGradGradGradGradGrad

                          Input orientation:                          
 ---------------------------------------------------------------------
 Center     Atomic      Atomic             Coordinates (Angstroms)
 Number     Number       Type             X           Y           Z
 ---------------------------------------------------------------------
      1          7           0        0.000000    0.000000    0.000000
      2          1           0        0.605436    0.605436    0.605436
      3          1           0       -0.605436   -0.605436    0.605436
      4          1           0       -0.605436    0.605436   -0.605436
      5          1           0        0.605436   -0.605436   -0.605436
 ---------------------------------------------------------------------
                    Distance matrix (angstroms):
                    1          2          3          4          5
     1  N    0.000000
     2  H    1.048646   0.000000
     3  H    1.048646   1.712432   0.000000
     4  H    1.048646   1.712432   1.712432   0.000000
     5  H    1.048646   1.712432   1.712432   1.712432   0.000000
 Stoichiometry    H4N(2)
 Framework group  TD[O(N),4C3(H)]
 Deg. of freedom     1
 Full point group                 TD      NOp  24
 Largest Abelian subgroup         D2      NOp   4
 Largest concise Abelian subgroup D2      NOp   4
                         Standard orientation:                         
 ---------------------------------------------------------------------
 Center     Atomic      Atomic             Coordinates (Angstroms)
 Number     Number       Type             X           Y           Z
 ---------------------------------------------------------------------
      1          7           0        0.000000    0.000000    0.000000
      2          1           0        0.605436    0.605436    0.605436
      3          1           0       -0.605436   -0.605436    0.605436
      4          1           0       -0.605436    0.605436   -0.605436
      5          1           0        0.605436   -0.605436   -0.605436
 ---------------------------------------------------------------------
 Rotational constants (GHZ):         171.0036527         171.0036527         171.0036527
 Basis read from rwf:  (5D, 7F)
 There are    26 symmetry adapted cartesian basis functions of A   symmetry.
 There are    23 symmetry adapted cartesian basis functions of B1  symmetry.
 There are    23 symmetry adapted cartesian basis functions of B2  symmetry.
 There are    23 symmetry adapted cartesian basis functions of B3  symmetry.
 There are    23 symmetry adapted basis functions of A   symmetry.
 There are    21 symmetry adapted basis functions of B1  symmetry.
 There are    21 symmetry adapted basis functions of B2  symmetry.
 There are    21 symmetry adapted basis functions of B3  symmetry.
    86 basis functions,   123 primitive gaussians,    95 cartesian basis functions
     6 alpha electrons        5 beta electrons
       nuclear repulsion energy        15.9837358510 Hartrees.
 NAtoms=    5 NActive=    5 NUniq=    2 SFac= 4.00D+00 NAtFMM=   60 NAOKFM=F Big=F
 Integral buffers will be    131072 words long.
 Raffenetti 2 integral format.
 Two-electron integral symmetry is turned on.
 One-electron integrals computed using PRISM.
 NBasis=    86 RedAO= T EigKep=  1.60D-03  NBF=    23    21    21    21
 NBsUse=    86 1.00D-06 EigRej= -1.00D+00 NBFU=    23    21    21    21
 Initial guess from the checkpoint file:  "/wrk/irikura/Gau-25469.chk"
 B after Tr=     0.000000    0.000000    0.000000
         Rot=    1.000000   -0.000000    0.000000    0.000000 Ang=   0.00 deg.
 Initial guess orbital symmetries:
 Alpha Orbitals:
       Occupied  (A1) (A1) (T2) (T2) (T2) (A1)
       Virtual   (T2) (T2) (T2) (T2) (T2) (T2) (A1) (T2) (T2) (T2)
                 (A1) (E) (E) (T2) (T2) (T2) (T1) (T1) (T1) (T2)
                 (T2) (T2) (A1) (T2) (T2) (T2) (A1) (E) (E) (T2)
                 (T2) (T2) (T2) (T2) (T2) (A1) (T1) (T1) (T1) (T2)
                 (T2) (T2) (E) (E) (T1) (T1) (T1) (E) (E) (T2)
                 (T2) (T2) (T2) (T2) (T2) (A1) (T1) (T1) (T1) (T2)
                 (T2) (T2) (A1) (T2) (T2) (T2) (E) (E) (E) (E)
                 (T1) (T1) (T1) (T2) (T2) (T2) (T2) (T2) (T2) (A1)
 Beta  Orbitals:
       Occupied  (A1) (A1) (T2) (T2) (T2)
       Virtual   (A1) (T2) (T2) (T2) (T2) (T2) (T2) (A1) (T2) (T2)
                 (T2) (A1) (E) (E) (T2) (T2) (T2) (T1) (T1) (T1)
                 (T2) (T2) (T2) (A1) (T2) (T2) (T2) (A1) (E) (E)
                 (T2) (T2) (T2) (T2) (T2) (T2) (A1) (T1) (T1) (T1)
                 (T2) (T2) (T2) (E) (E) (T1) (T1) (T1) (E) (E)
                 (T2) (T2) (T2) (T2) (T2) (T2) (A1) (T1) (T1) (T1)
                 (T2) (T2) (T2) (A1) (T2) (T2) (T2) (E) (E) (E)
                 (E) (T1) (T1) (T1) (T2) (T2) (T2) (T2) (T2) (T2)
                 (A1)
 Initial guess <Sx>= 0.0000 <Sy>= 0.0000 <Sz>= 0.5000 <S**2>= 0.7503 S= 0.5001
 Keep R1 and R2 ints in memory in symmetry-blocked form, NReq=18031139.
 Requested convergence on RMS density matrix=1.00D-08 within 128 cycles.
 Requested convergence on MAX density matrix=1.00D-06.
 Requested convergence on             energy=1.00D-06.
 No special actions if energy rises.
 SCF Done:  E(UB3LYP) =  -57.0941342668     A.U. after    7 cycles
            NFock=  7  Conv=0.25D-08     -V/T= 2.0036
 <Sx>= 0.0000 <Sy>= 0.0000 <Sz>= 0.5000 <S**2>= 0.7503 S= 0.5001
 <L.S>=  0.00000000000    
 Annihilation of the first spin contaminant:
 S**2 before annihilation     0.7503,   after     0.7500
 Calling FoFJK, ICntrl=      2127 FMM=F ISym2X=1 I1Cent= 0 IOpClX= 1 NMat=1 NMatS=1 NMatT=0.
 ***** Axes restored to original set *****
 -------------------------------------------------------------------
 Center     Atomic                   Forces (Hartrees/Bohr)
 Number     Number              X              Y              Z
 -------------------------------------------------------------------
      1        7           0.000000000   -0.000000000   -0.000000000
      2        1          -0.000000049   -0.000000049   -0.000000049
      3        1           0.000000049    0.000000049   -0.000000049
      4        1           0.000000049   -0.000000049    0.000000049
      5        1          -0.000000049    0.000000049    0.000000049
 -------------------------------------------------------------------
 Cartesian Forces:  Max     0.000000049 RMS     0.000000044

 GradGradGradGradGradGradGradGradGradGradGradGradGradGradGradGradGradGrad
 Berny optimization.
 Using GEDIIS/GDIIS optimizer.
 FormGI is forming the generalized inverse of G from B-inverse, IUseBI=4.
 Internal  Forces:  Max     0.000000086 RMS     0.000000046
 Search for a local minimum.
 Step number   3 out of a maximum of   24
 All quantities printed in internal units (Hartrees-Bohrs-Radians)
 Mixed Optimization -- En-DIIS/RFO-DIIS
 Swapping is turned off.
 Update second derivatives using D2CorX and points    1    2    3
 DE= -4.70D-06 DEPred=-4.58D-06 R= 1.03D+00
 TightC=F SS=  1.41D+00  RLast= 5.36D-03 DXNew= 5.0454D-01 1.6074D-02
 Trust test= 1.03D+00 RLast= 5.36D-03 DXMaxT set to 3.00D-01
 The second derivative matrix:
                          R1        R2        R3        R4        A1
           R1           0.39061
           R2          -0.02089   0.39061
           R3          -0.02089  -0.02089   0.39061
           R4          -0.02089  -0.02089  -0.02089   0.39061
           A1           0.00000   0.00000   0.00000   0.00000   0.16000
           A2          -0.00000  -0.00000  -0.00000  -0.00000  -0.00000
           A3          -0.00000  -0.00000  -0.00000  -0.00000  -0.00000
           A4          -0.00000  -0.00000  -0.00000  -0.00000  -0.00000
           A5           0.00000   0.00000   0.00000   0.00000   0.00000
           A6           0.00000   0.00000   0.00000   0.00000   0.00000
           D1          -0.00000  -0.00000  -0.00000  -0.00000  -0.00000
           D2           0.00000   0.00000   0.00000   0.00000   0.00000
           D3           0.00000   0.00000   0.00000   0.00000   0.00000
           D4          -0.00000  -0.00000  -0.00000  -0.00000  -0.00000
                          A2        A3        A4        A5        A6
           A2           0.16000
           A3           0.00000   0.16000
           A4           0.00000   0.00000   0.16000
           A5          -0.00000  -0.00000  -0.00000   0.16000
           A6          -0.00000  -0.00000  -0.00000   0.00000   0.16000
           D1           0.00000   0.00000   0.00000  -0.00000  -0.00000
           D2          -0.00000  -0.00000  -0.00000   0.00000   0.00000
           D3          -0.00000  -0.00000  -0.00000   0.00000   0.00000
           D4           0.00000   0.00000   0.00000  -0.00000  -0.00000
                          D1        D2        D3        D4
           D1           0.00486
           D2          -0.00000   0.00486
           D3          -0.00000   0.00000   0.00486
           D4           0.00000  -0.00000  -0.00000   0.00486
 ITU=  1  1  0
     Eigenvalues ---    0.05260   0.05882   0.08760   0.16000   0.16000
     Eigenvalues ---    0.32795   0.41150   0.41150   0.41150
 En-DIIS/RFO-DIIS/Sim-DIIS IScMMF=       -3 using points:     3    2
 RFO step:  Lambda= 0.00000000D+00.
 DidBck=F Rises=F RFO-DIIS coefs:    0.99990    0.00010
 Iteration  1 RMS(Cart)=  0.00000014 RMS(Int)=  0.00000000
 ClnCor:  largest displacement from symmetrization is 1.23D-14 for atom     4.
 Variable       Old X    -DE/DX   Delta X   Delta X   Delta X     New X
                                 (Linear)    (Quad)   (Total)
    R1        1.98165  -0.00000  -0.00000   0.00000  -0.00000   1.98165
    R2        1.98165  -0.00000  -0.00000  -0.00000  -0.00000   1.98165
    R3        1.98165  -0.00000  -0.00000  -0.00000  -0.00000   1.98165
    R4        1.98165  -0.00000  -0.00000   0.00000  -0.00000   1.98165
    A1        1.91063  -0.00000   0.00000  -0.00000  -0.00000   1.91063
    A2        1.91063  -0.00000   0.00000  -0.00000   0.00000   1.91063
    A3        1.91063   0.00000   0.00000   0.00000   0.00000   1.91063
    A4        1.91063  -0.00000   0.00000  -0.00000   0.00000   1.91063
    A5        1.91063   0.00000   0.00000   0.00000   0.00000   1.91063
    A6        1.91063  -0.00000   0.00000   0.00000  -0.00000   1.91063
    D1       -2.09440   0.00000   0.00000   0.00000   0.00000  -2.09440
    D2        2.09440   0.00000   0.00000   0.00000  -0.00000   2.09440
    D3       -2.09440  -0.00000   0.00000  -0.00000   0.00000  -2.09440
    D4        2.09440  -0.00000   0.00000  -0.00000   0.00000   2.09440
         Item               Value     Threshold  Converged?
 Maximum Force            0.000000     0.000450     YES
 RMS     Force            0.000000     0.000300     YES
 Maximum Displacement     0.000000     0.001800     YES
 RMS     Displacement     0.000000     0.001200     YES
 Predicted change in Energy=-4.471482D-14
 Optimization completed.
    -- Stationary point found.
                           ----------------------------
                           !   Optimized Parameters   !
                           ! (Angstroms and Degrees)  !
 --------------------------                            --------------------------
 ! Name  Definition              Value          Derivative Info.                !
 --------------------------------------------------------------------------------
 ! R1    R(1,2)                  1.0486         -DE/DX =    0.0                 !
 ! R2    R(1,3)                  1.0486         -DE/DX =    0.0                 !
 ! R3    R(1,4)                  1.0486         -DE/DX =    0.0                 !
 ! R4    R(1,5)                  1.0486         -DE/DX =    0.0                 !
 ! A1    A(2,1,3)              109.4712         -DE/DX =    0.0                 !
 ! A2    A(2,1,4)              109.4712         -DE/DX =    0.0                 !
 ! A3    A(2,1,5)              109.4712         -DE/DX =    0.0                 !
 ! A4    A(3,1,4)              109.4712         -DE/DX =    0.0                 !
 ! A5    A(3,1,5)              109.4712         -DE/DX =    0.0                 !
 ! A6    A(4,1,5)              109.4712         -DE/DX =    0.0                 !
 ! D1    D(2,1,4,3)           -120.0            -DE/DX =    0.0                 !
 ! D2    D(2,1,5,3)            120.0            -DE/DX =    0.0                 !
 ! D3    D(2,1,5,4)           -120.0            -DE/DX =    0.0                 !
 ! D4    D(3,1,5,4)            120.0            -DE/DX =    0.0                 !
 --------------------------------------------------------------------------------
 GradGradGradGradGradGradGradGradGradGradGradGradGradGradGradGradGradGrad

                          Input orientation:                          
 ---------------------------------------------------------------------
 Center     Atomic      Atomic             Coordinates (Angstroms)
 Number     Number       Type             X           Y           Z
 ---------------------------------------------------------------------
      1          7           0        0.000000    0.000000    0.000000
      2          1           0        0.605436    0.605436    0.605436
      3          1           0       -0.605436   -0.605436    0.605436
      4          1           0       -0.605436    0.605436   -0.605436
      5          1           0        0.605436   -0.605436   -0.605436
 ---------------------------------------------------------------------
                    Distance matrix (angstroms):
                    1          2          3          4          5
     1  N    0.000000
     2  H    1.048646   0.000000
     3  H    1.048646   1.712432   0.000000
     4  H    1.048646   1.712432   1.712432   0.000000
     5  H    1.048646   1.712432   1.712432   1.712432   0.000000
 Stoichiometry    H4N(2)
 Framework group  TD[O(N),4C3(H)]
 Deg. of freedom     1
 Full point group                 TD      NOp  24
 Largest Abelian subgroup         D2      NOp   4
 Largest concise Abelian subgroup D2      NOp   4
                         Standard orientation:                         
 ---------------------------------------------------------------------
 Center     Atomic      Atomic             Coordinates (Angstroms)
 Number     Number       Type             X           Y           Z
 ---------------------------------------------------------------------
      1          7           0        0.000000    0.000000    0.000000
      2          1           0        0.605436    0.605436    0.605436
      3          1           0       -0.605436   -0.605436    0.605436
      4          1           0       -0.605436    0.605436   -0.605436
      5          1           0        0.605436   -0.605436   -0.605436
 ---------------------------------------------------------------------
 Rotational constants (GHZ):         171.0036527         171.0036527         171.0036527

 **********************************************************************

            Population analysis using the SCF Density.

 **********************************************************************

 Orbital symmetries:
 Alpha Orbitals:
       Occupied  (A1) (A1) (T2) (T2) (T2) (A1)
       Virtual   (T2) (T2) (T2) (T2) (T2) (T2) (A1) (T2) (T2) (T2)
                 (A1) (E) (E) (T2) (T2) (T2) (T1) (T1) (T1) (T2)
                 (T2) (T2) (A1) (T2) (T2) (T2) (A1) (E) (E) (T2)
                 (T2) (T2) (T2) (T2) (T2) (A1) (T1) (T1) (T1) (T2)
                 (T2) (T2) (E) (E) (T1) (T1) (T1) (E) (E) (T2)
                 (T2) (T2) (T2) (T2) (T2) (A1) (T1) (T1) (T1) (T2)
                 (T2) (T2) (A1) (T2) (T2) (T2) (E) (E) (E) (E)
                 (T1) (T1) (T1) (T2) (T2) (T2) (T2) (T2) (T2) (A1)
 Beta  Orbitals:
       Occupied  (A1) (A1) (T2) (T2) (T2)
       Virtual   (A1) (T2) (T2) (T2) (T2) (T2) (T2) (A1) (T2) (T2)
                 (T2) (A1) (E) (E) (T2) (T2) (T2) (T1) (T1) (T1)
                 (T2) (T2) (T2) (A1) (T2) (T2) (T2) (A1) (E) (E)
                 (T2) (T2) (T2) (T2) (T2) (T2) (A1) (T1) (T1) (T1)
                 (T2) (T2) (T2) (E) (E) (T1) (T1) (T1) (E) (E)
                 (T2) (T2) (T2) (T2) (T2) (T2) (A1) (T1) (T1) (T1)
                 (T2) (T2) (T2) (A1) (T2) (T2) (T2) (E) (E) (E)
                 (E) (T1) (T1) (T1) (T2) (T2) (T2) (T2) (T2) (T2)
                 (A1)
 The electronic state is 2-A1.
 Alpha  occ. eigenvalues --  -14.42399  -0.98008  -0.56173  -0.56173  -0.56173
 Alpha  occ. eigenvalues --   -0.09552
 Alpha virt. eigenvalues --    0.01893   0.01893   0.01893   0.14895   0.14895
 Alpha virt. eigenvalues --    0.14895   0.27970   0.33029   0.33029   0.33029
 Alpha virt. eigenvalues --    0.45902   0.51209   0.51209   0.89946   0.89946
 Alpha virt. eigenvalues --    0.89946   0.93727   0.93727   0.93727   1.19242
 Alpha virt. eigenvalues --    1.19242   1.19242   1.24579   1.31405   1.31405
 Alpha virt. eigenvalues --    1.31405   1.62506   1.68362   1.68362   1.80726
 Alpha virt. eigenvalues --    1.80726   1.80726   2.89804   2.89804   2.89804
 Alpha virt. eigenvalues --    3.15018   3.33817   3.33817   3.33817   3.42319
 Alpha virt. eigenvalues --    3.42319   3.42319   3.64670   3.64670   3.78486
 Alpha virt. eigenvalues --    3.78486   3.78486   4.09817   4.09817   4.19126
 Alpha virt. eigenvalues --    4.19126   4.19126   4.44215   4.44215   4.44215
 Alpha virt. eigenvalues --    4.58864   4.59855   4.59855   4.59855   4.77298
 Alpha virt. eigenvalues --    4.77298   4.77298   5.06832   5.14441   5.14441
 Alpha virt. eigenvalues --    5.14441   5.33977   5.33977   5.85960   5.85960
 Alpha virt. eigenvalues --    6.02112   6.02112   6.02112   6.30554   6.30554
 Alpha virt. eigenvalues --    6.30554   6.48050   6.48050   6.48050   6.49017
  Beta  occ. eigenvalues --  -14.41787  -0.97027  -0.55464  -0.55464  -0.55464
  Beta virt. eigenvalues --   -0.03923   0.03893   0.03893   0.03893   0.15877
  Beta virt. eigenvalues --    0.15877   0.15877   0.29743   0.34127   0.34127
  Beta virt. eigenvalues --    0.34127   0.46612   0.51912   0.51912   0.90700
  Beta virt. eigenvalues --    0.90700   0.90700   0.94754   0.94754   0.94754
  Beta virt. eigenvalues --    1.20193   1.20193   1.20193   1.25489   1.32597
  Beta virt. eigenvalues --    1.32597   1.32597   1.63934   1.69060   1.69060
  Beta virt. eigenvalues --    1.81484   1.81484   1.81484   2.90335   2.90335
  Beta virt. eigenvalues --    2.90335   3.15553   3.34180   3.34180   3.34180
  Beta virt. eigenvalues --    3.43193   3.43193   3.43193   3.65206   3.65206
  Beta virt. eigenvalues --    3.79038   3.79038   3.79038   4.10807   4.10807
  Beta virt. eigenvalues --    4.19651   4.19651   4.19651   4.44873   4.44873
  Beta virt. eigenvalues --    4.44873   4.60052   4.60981   4.60981   4.60981
  Beta virt. eigenvalues --    4.78249   4.78249   4.78249   5.07629   5.15478
  Beta virt. eigenvalues --    5.15478   5.15478   5.34937   5.34937   5.86612
  Beta virt. eigenvalues --    5.86612   6.02790   6.02790   6.02790   6.31443
  Beta virt. eigenvalues --    6.31443   6.31443   6.48709   6.48709   6.48709
  Beta virt. eigenvalues --    6.49707
          Condensed to atoms (all electrons):
               1          2          3          4          5
     1  N    8.511455  -0.501783  -0.501783  -0.501783  -0.501783
     2  H   -0.501783   0.867187   0.252838   0.252838   0.252838
     3  H   -0.501783   0.252838   0.867187   0.252838   0.252838
     4  H   -0.501783   0.252838   0.252838   0.867187   0.252838
     5  H   -0.501783   0.252838   0.252838   0.252838   0.867187
          Atomic-Atomic Spin Densities.
               1          2          3          4          5
     1  N    3.020017  -0.878222  -0.878222  -0.878222  -0.878222
     2  H   -0.878222   0.463248   0.262731   0.262731   0.262731
     3  H   -0.878222   0.262731   0.463248   0.262731   0.262731
     4  H   -0.878222   0.262731   0.262731   0.463248   0.262731
     5  H   -0.878222   0.262731   0.262731   0.262731   0.463248
 Mulliken charges and spin densities:
               1          2
     1  N    0.495675  -0.492871
     2  H   -0.123919   0.373218
     3  H   -0.123919   0.373218
     4  H   -0.123919   0.373218
     5  H   -0.123919   0.373218
 Sum of Mulliken charges =   0.00000   1.00000
 Mulliken charges and spin densities with hydrogens summed into heavy atoms:
               1          2
     1  N    0.000000   1.000000
 Electronic spatial extent (au):  <R**2>=             44.2615
 Charge=             -0.0000 electrons
 Dipole moment (field-independent basis, Debye):
    X=             -0.0000    Y=             -0.0000    Z=             -0.0000  Tot=              0.0000
 Quadrupole moment (field-independent basis, Debye-Ang):
   XX=            -12.8019   YY=            -12.8019   ZZ=            -12.8019
   XY=              0.0000   XZ=              0.0000   YZ=              0.0000
 Traceless Quadrupole moment (field-independent basis, Debye-Ang):
   XX=              0.0000   YY=              0.0000   ZZ=             -0.0000
   XY=              0.0000   XZ=              0.0000   YZ=              0.0000
 Octapole moment (field-independent basis, Debye-Ang**2):
  XXX=             -0.0000  YYY=              0.0000  ZZZ=              0.0000  XYY=             -0.0000
  XXY=              0.0000  XXZ=              0.0000  XZZ=              0.0000  YZZ=             -0.0000
  YYZ=             -0.0000  XYZ=              0.2764
 Hexadecapole moment (field-independent basis, Debye-Ang**3):
 XXXX=            -43.3148 YYYY=            -43.3148 ZZZZ=            -43.3148 XXXY=              0.0000
 XXXZ=              0.0000 YYYX=              0.0000 YYYZ=              0.0000 ZZZX=              0.0000
 ZZZY=              0.0000 XXYY=            -14.0815 XXZZ=            -14.0815 YYZZ=            -14.0815
 XXYZ=              0.0000 YYXZ=              0.0000 ZZXY=              0.0000
 N-N= 1.598373585102D+01 E-N=-1.639919436649D+02  KE= 5.689197946541D+01
 Symmetry A    KE= 4.848962321592D+01
 Symmetry B1   KE= 2.800785416496D+00
 Symmetry B2   KE= 2.800785416496D+00
 Symmetry B3   KE= 2.800785416496D+00
 Symmetry A    SP= 1.000000000000D+00
 Symmetry B1   SP=-5.444415441551D-16
 Symmetry B2   SP=-5.387754231336D-16
 Symmetry B3   SP=-6.614962564493D-16
                          Isotropic Fermi Contact Couplings
        Atom                 a.u.       MegaHertz       Gauss      10(-4) cm-1
     1  N(14)              0.96590     312.08693     111.36038     104.10099
     2  H(1)               0.00446      19.95668       7.12104       6.65683
     3  H(1)               0.00446      19.95668       7.12104       6.65683
     4  H(1)               0.00446      19.95668       7.12104       6.65683
     5  H(1)               0.00446      19.95668       7.12104       6.65683
 --------------------------------------------------------
       Center         ----  Spin Dipole Couplings  ----
                      3XX-RR        3YY-RR        3ZZ-RR
 --------------------------------------------------------
     1   Atom        0.000000      0.000000      0.000000
     2   Atom        0.000000     -0.000000      0.000000
     3   Atom       -0.000000     -0.000000      0.000000
     4   Atom       -0.000000      0.000000     -0.000000
     5   Atom        0.000000     -0.000000     -0.000000
 --------------------------------------------------------
                        XY            XZ            YZ
 --------------------------------------------------------
     1   Atom       -0.000000     -0.000000     -0.000000
     2   Atom        0.013171      0.013171      0.013171
     3   Atom        0.013171     -0.013171     -0.013171
     4   Atom       -0.013171      0.013171     -0.013171
     5   Atom       -0.013171     -0.013171      0.013171
 --------------------------------------------------------


 ---------------------------------------------------------------------------------
              Anisotropic Spin Dipole Couplings in Principal Axis System
 ---------------------------------------------------------------------------------

[...]
     4  H(1)               0.00446      19.95668       7.12104       6.65683
     5  H(1)               0.00446      19.95668       7.12104       6.65683
 --------------------------------------------------------
       Center         ----  Spin Dipole Couplings  ----
                      3XX-RR        3YY-RR        3ZZ-RR
 --------------------------------------------------------
     1   Atom       -0.000000      0.000000     -0.000000
     2   Atom        0.000000      0.000000     -0.000000
     3   Atom        0.000000     -0.000000     -0.000000
     4   Atom        0.000000      0.000000     -0.000000
     5   Atom        0.000000     -0.000000      0.000000
 --------------------------------------------------------
                        XY            XZ            YZ
 --------------------------------------------------------
     1   Atom        0.000000     -0.000000      0.000000
     2   Atom        0.013171      0.013171      0.013171
     3   Atom        0.013171     -0.013171     -0.013171
     4   Atom       -0.013171      0.013171     -0.013171
     5   Atom       -0.013171     -0.013171      0.013171
 --------------------------------------------------------


 ---------------------------------------------------------------------------------
              Anisotropic Spin Dipole Couplings in Principal Axis System
 ---------------------------------------------------------------------------------

       Atom             a.u.   MegaHertz   Gauss  10(-4) cm-1        Axes

              Baa    -0.0000    -0.000    -0.000    -0.000  0.6598 -0.5347  0.5281
     1 N(14)  Bbb     0.0000     0.000     0.000     0.000 -0.4535  0.2771  0.8471
              Bcc     0.0000     0.000     0.000     0.000  0.5992  0.7983  0.0596
 
              Baa    -0.0132    -7.027    -2.507    -2.344  0.8165 -0.4026 -0.4139
     2 H(1)   Bbb    -0.0132    -7.027    -2.507    -2.344 -0.0065  0.7104 -0.7038
              Bcc     0.0263    14.054     5.015     4.688  0.5774  0.5774  0.5774
 
              Baa    -0.0132    -7.027    -2.507    -2.344  0.8151 -0.3660  0.4491
     3 H(1)   Bbb    -0.0132    -7.027    -2.507    -2.344 -0.0480  0.7299  0.6819
              Bcc     0.0263    14.054     5.015     4.688  0.5774  0.5774 -0.5774
 
              Baa    -0.0132    -7.027    -2.507    -2.344  0.8105  0.3201 -0.4905
     4 H(1)   Bbb    -0.0132    -7.027    -2.507    -2.344  0.0984  0.7511  0.6528
              Bcc     0.0263    14.054     5.015     4.688  0.5774 -0.5774  0.5774
 
              Baa    -0.0132    -7.027    -2.507    -2.344  0.1457 -0.6229  0.7686
     5 H(1)   Bbb    -0.0132    -7.027    -2.507    -2.344  0.8034  0.5278  0.2756
              Bcc     0.0263    14.054     5.015     4.688  0.5774 -0.5774 -0.5774
 

 ---------------------------------------------------------------------------------

 Calling FoFJK, ICntrl=    100127 FMM=F ISym2X=1 I1Cent= 0 IOpClX= 1 NMat=1 NMatS=1 NMatT=0.
 Full mass-weighted force constant matrix:
 Low frequencies ---   -0.0016   -0.0011    0.0012   21.0602   21.0602   21.0602
 Low frequencies --- 1260.4625 1260.4625 1260.4625
 Diagonal vibrational polarizability:
        4.5730129       4.5730129       4.5730129
 Harmonic frequencies (cm**-1), IR intensities (KM/Mole), Raman scattering
 activities (A**4/AMU), depolarization ratios for plane and unpolarized
 incident light, reduced masses (AMU), force constants (mDyne/A),
 and normal coordinates:
                      1                      2                      3
                     T2                     T2                     T2
 Frequencies --   1260.4625              1260.4625              1260.4625
 Red. masses --      1.1403                 1.1403                 1.1403
 Frc consts  --      1.0674                 1.0674                 1.0674
 IR Inten    --      9.0592                 9.0592                 9.0592
  Atom  AN      X      Y      Z        X      Y      Z        X      Y      Z
     1   7    -0.03  -0.07  -0.07     0.00   0.07  -0.07    -0.10   0.02   0.02
     2   1    -0.22  -0.01  -0.01    -0.00  -0.42   0.42     0.44  -0.26  -0.26
     3   1     0.11   0.32   0.48     0.35  -0.07   0.07     0.33  -0.37   0.10
     4   1     0.11   0.48   0.32    -0.35  -0.07   0.07     0.33   0.10  -0.37
     5   1     0.45   0.15   0.15     0.00  -0.42   0.42     0.22   0.21   0.21
                      4                      5                      6
                      E                      E                     T2
 Frequencies --   1544.5235              1544.5235              2792.2396
 Red. masses --      1.0078                 1.0078                 1.1090
 Frc consts  --      1.4165                 1.4165                 5.0944
 IR Inten    --      0.0000                 0.0000              1280.4178
  Atom  AN      X      Y      Z        X      Y      Z        X      Y      Z
     1   7    -0.00  -0.00   0.00    -0.00   0.00  -0.00     0.09  -0.00  -0.00
     2   1    -0.28  -0.12   0.40    -0.30   0.39  -0.09    -0.31  -0.28  -0.28
     3   1     0.28   0.12   0.40     0.30  -0.39  -0.09    -0.31  -0.28   0.28
     4   1     0.28  -0.12  -0.40     0.30   0.39   0.09    -0.31   0.28  -0.28
     5   1    -0.28   0.12  -0.40    -0.30  -0.39   0.09    -0.31   0.28   0.28
                      7                      8                      9
                     T2                     T2                     A1
 Frequencies --   2792.2396              2792.2396              2924.8757
 Red. masses --      1.1090                 1.1090                 1.0078
 Frc consts  --      5.0944                 5.0944                 5.0798
 IR Inten    --   1280.4177              1280.4177                 0.0000
  Atom  AN      X      Y      Z        X      Y      Z        X      Y      Z
     1   7    -0.00   0.03  -0.08    -0.00  -0.08  -0.03    -0.00  -0.00  -0.00
     2   1     0.15   0.13   0.17     0.37   0.39   0.38     0.29   0.29   0.29
     3   1    -0.36  -0.38   0.39     0.15   0.17  -0.13    -0.29  -0.29   0.29
     4   1     0.37  -0.38   0.39    -0.14   0.17  -0.13    -0.29   0.29  -0.29
     5   1    -0.14   0.13   0.17    -0.36   0.39   0.38     0.29  -0.29  -0.29

 -------------------
 - Thermochemistry -
 -------------------
 Temperature   298.150 Kelvin.  Pressure   1.00000 Atm.
 Atom     1 has atomic number  7 and mass  14.00307
 Atom     2 has atomic number  1 and mass   1.00783
 Atom     3 has atomic number  1 and mass   1.00783
 Atom     4 has atomic number  1 and mass   1.00783
 Atom     5 has atomic number  1 and mass   1.00783
 Molecular mass:    18.03437 amu.
 Principal axes and moments of inertia in atomic units:
                           1         2         3
     Eigenvalues --    10.55382  10.55382  10.55382
           X            1.00000   0.00000  -0.00000
           Y           -0.00000   0.00000   1.00000
           Z           -0.00000   1.00000  -0.00000
 This molecule is a spherical top.
 Rotational symmetry number 12.
 Rotational temperatures (Kelvin)      8.20688     8.20688     8.20688
 Rotational constants (GHZ):         171.00365   171.00365   171.00365
 Zero-point vibrational energy     108692.9 (Joules/Mol)
                                   25.97822 (Kcal/Mol)
 Vibrational temperatures:   1813.52  1813.52  1813.52  2222.22  2222.22
          (Kelvin)           4017.41  4017.41  4017.41  4208.24
 
 Zero-point correction=                           0.041399 (Hartree/Particle)
 Thermal correction to Energy=                    0.044279
 Thermal correction to Enthalpy=                  0.045223
 Thermal correction to Gibbs Free Energy=         0.023370
 Sum of electronic and zero-point Energies=            -57.052735
 Sum of electronic and thermal Energies=               -57.049855
 Sum of electronic and thermal Enthalpies=             -57.048911
 Sum of electronic and thermal Free Energies=          -57.070765
 
                     E (Thermal)             CV                S
                      KCal/Mol        Cal/Mol-Kelvin    Cal/Mol-Kelvin
 Total                   27.786              6.597             45.995
 Electronic               0.000              0.000              1.377
 Translational            0.889              2.981             34.612
 Rotational               0.889              2.981              9.889
 Vibrational             26.008              0.636              0.116
                       Q            Log10(Q)             Ln(Q)
 Total Bot       0.178126D-10        -10.749272        -24.751113
 Total V=0       0.196289D+09          8.292897         19.095100
 Vib (Bot)       0.914775D-19        -19.038686        -43.838194
 Vib (V=0)       0.100805D+01          0.003483          0.008019
 Electronic      0.200000D+01          0.301030          0.693147
 Translational   0.301027D+07          6.478605         14.917540
 Rotational      0.323429D+02          1.509779          3.476394
 ***** Axes restored to original set *****
 -------------------------------------------------------------------
 Center     Atomic                   Forces (Hartrees/Bohr)
 Number     Number              X              Y              Z
 -------------------------------------------------------------------
      1        7           0.000000000    0.000000000    0.000000000
      2        1          -0.000000050   -0.000000050   -0.000000050
      3        1           0.000000050    0.000000050   -0.000000050
      4        1           0.000000050   -0.000000050    0.000000050
      5        1          -0.000000050    0.000000050    0.000000050
 -------------------------------------------------------------------
 Cartesian Forces:  Max     0.000000050 RMS     0.000000044
 FormGI is forming the generalized inverse of G from B-inverse, IUseBI=4.

 GradGradGradGradGradGradGradGradGradGradGradGradGradGradGradGradGradGrad
 Berny optimization.
 Internal  Forces:  Max     0.000000086 RMS     0.000000046
 Search for a local minimum.
 Step number   1 out of a maximum of    2
 All quantities printed in internal units (Hartrees-Bohrs-Radians)
 Second derivative matrix not updated -- analytic derivatives used.
 The second derivative matrix:
                          R1        R2        R3        R4        A1
           R1           0.28338
           R2           0.01430   0.28338
           R3           0.01430   0.01430   0.28338
           R4           0.01430   0.01430   0.01430   0.28338
           A1          -0.00041  -0.00041   0.00026   0.00056   0.01744
           A2          -0.00064   0.00016  -0.00071   0.00118  -0.00804
           A3          -0.00125   0.00100   0.00111  -0.00086  -0.01167
           A4           0.00016  -0.00064  -0.00071   0.00118  -0.00804
           A5           0.00100  -0.00125   0.00111  -0.00086  -0.01167
           A6           0.00113   0.00113  -0.00105  -0.00120   0.02199
           D1           0.00079   0.00079   0.00056  -0.00214  -0.01151
           D2          -0.00065  -0.00065   0.00167  -0.00037   0.00706
           D3           0.00086  -0.00151   0.00084  -0.00019   0.00353
           D4           0.00151  -0.00086  -0.00084   0.00019  -0.00353
                          A2        A3        A4        A5        A6
           A2           0.03257
           A3          -0.01997   0.06365
           A4          -0.00237   0.02302   0.03257
           A5           0.02302  -0.03137  -0.01997   0.06365
           A6          -0.02521  -0.02366  -0.02521  -0.02366   0.07575
           D1          -0.00865   0.01243  -0.00865   0.01243   0.00395
           D2          -0.00798   0.00547  -0.00798   0.00547  -0.00205
           D3          -0.01223  -0.00003   0.00425   0.00550  -0.00102
           D4          -0.00425  -0.00550   0.01223   0.00003   0.00102
                          D1        D2        D3        D4
           D1           0.02469
           D2           0.00112   0.01535
           D3           0.00056   0.00768   0.01562
           D4          -0.00056  -0.00768   0.00794   0.01562
 ITU=  0
     Eigenvalues ---    0.03200   0.03598   0.05448   0.11679   0.11750
     Eigenvalues ---    0.26914   0.26914   0.26915   0.32628
 Angle between quadratic step and forces=  90.00 degrees.
 Linear search not attempted -- first point.
 Iteration  1 RMS(Cart)=  0.00000014 RMS(Int)=  0.00000000
 ClnCor:  largest displacement from symmetrization is 2.82D-14 for atom     4.
 Variable       Old X    -DE/DX   Delta X   Delta X   Delta X     New X
                                 (Linear)    (Quad)   (Total)
    R1        1.98165  -0.00000   0.00000  -0.00000  -0.00000   1.98165
    R2        1.98165  -0.00000   0.00000  -0.00000  -0.00000   1.98165
    R3        1.98165  -0.00000   0.00000  -0.00000  -0.00000   1.98165
    R4        1.98165  -0.00000   0.00000  -0.00000  -0.00000   1.98165
    A1        1.91063  -0.00000   0.00000  -0.00000   0.00000   1.91063
    A2        1.91063   0.00000   0.00000   0.00000   0.00000   1.91063
    A3        1.91063   0.00000   0.00000   0.00000  -0.00000   1.91063
    A4        1.91063   0.00000   0.00000   0.00000  -0.00000   1.91063
    A5        1.91063   0.00000   0.00000  -0.00000   0.00000   1.91063
    A6        1.91063  -0.00000   0.00000  -0.00000   0.00000   1.91063
    D1       -2.09440  -0.00000   0.00000  -0.00000   0.00000  -2.09440
    D2        2.09440  -0.00000   0.00000   0.00000   0.00000   2.09440
    D3       -2.09440  -0.00000   0.00000  -0.00000   0.00000  -2.09440
    D4        2.09440  -0.00000   0.00000  -0.00000   0.00000   2.09440
         Item               Value     Threshold  Converged?
 Maximum Force            0.000000     0.000450     YES
 RMS     Force            0.000000     0.000300     YES
 Maximum Displacement     0.000000     0.001800     YES
 RMS     Displacement     0.000000     0.001200     YES
 Predicted change in Energy=-4.522800D-14
 Optimization completed.
    -- Stationary point found.
                           ----------------------------
                           !   Optimized Parameters   !
                           ! (Angstroms and Degrees)  !
 --------------------------                            --------------------------
 ! Name  Definition              Value          Derivative Info.                !
 --------------------------------------------------------------------------------
 ! R1    R(1,2)                  1.0486         -DE/DX =    0.0                 !
 ! R2    R(1,3)                  1.0486         -DE/DX =    0.0                 !
 ! R3    R(1,4)                  1.0486         -DE/DX =    0.0                 !
 ! R4    R(1,5)                  1.0486         -DE/DX =    0.0                 !
 ! A1    A(2,1,3)              109.4712         -DE/DX =    0.0                 !
 ! A2    A(2,1,4)              109.4712         -DE/DX =    0.0                 !
 ! A3    A(2,1,5)              109.4712         -DE/DX =    0.0                 !
 ! A4    A(3,1,4)              109.4712         -DE/DX =    0.0                 !
 ! A5    A(3,1,5)              109.4712         -DE/DX =    0.0                 !
 ! A6    A(4,1,5)              109.4712         -DE/DX =    0.0                 !
 ! D1    D(2,1,4,3)           -120.0            -DE/DX =    0.0                 !
 ! D2    D(2,1,5,3)            120.0            -DE/DX =    0.0                 !
 ! D3    D(2,1,5,4)           -120.0            -DE/DX =    0.0                 !
 ! D4    D(3,1,5,4)            120.0            -DE/DX =    0.0                 !
 --------------------------------------------------------------------------------
 GradGradGradGradGradGradGradGradGradGradGradGradGradGradGradGradGradGrad

 Dipole is zero, so no output in dipole orientation.

 ----------------------------------------------------------------------

 Electric dipole moment (input orientation):
 (Debye = 10**-18 statcoulomb cm , SI units = C m)
                  (au)            (Debye)         (10**-30 SI)
   Tot        0.000000D+00      0.000000D+00      0.000000D+00
   x          0.000000D+00      0.000000D+00      0.000000D+00
   y          0.000000D+00      0.000000D+00      0.000000D+00
   z          0.000000D+00      0.000000D+00      0.000000D+00

 Dipole polarizability, Alpha (input orientation).
 (esu units = cm**3 , SI units = C**2 m**2 J**-1)
 Alpha(0;0):
               (au)            (10**-24 esu)      (10**-40 SI)
   iso        0.990556D+02      0.146785D+02      0.163321D+02
   aniso      0.000000D+00      0.000000D+00      0.000000D+00
   xx         0.990556D+02      0.146785D+02      0.163321D+02
   yx         0.000000D+00      0.000000D+00      0.000000D+00
   yy         0.990556D+02      0.146785D+02      0.163321D+02
   zx         0.000000D+00      0.000000D+00      0.000000D+00
   zy         0.000000D+00      0.000000D+00      0.000000D+00
   zz         0.990556D+02      0.146785D+02      0.163321D+02

 ----------------------------------------------------------------------
 1\1\GINC-GAMBA\Freq\UB3LYP\Gen\H4N1(2)\IRIKURA\17-Jun-2022\0\\#N Geom=
 AllCheck Guess=TCheck SCRF=Check GenChk UB3LYP/ChkBas Freq\\ammonium r
 adical, B3LYP/pcseg-2\\0,2\N,0.,0.,0.\H,0.6054361395,0.6054361395,0.60
 54361395\H,-0.6054361395,-0.6054361395,0.6054361395\H,-0.6054361395,0.
 6054361395,-0.6054361395\H,0.6054361395,-0.6054361395,-0.6054361395\\V
 ersion=ES64L-G16RevB.01\State=2-A1\HF=-57.0941343\S2=0.750265\S2-1=0.\
 S2A=0.75\RMSD=9.594e-10\RMSF=4.436e-08\ZeroPoint=0.0413989\Thermal=0.0
 442791\Dipole=0.,0.,0.\DipoleDeriv=1.4723659,0.,0.,0.,1.4723659,0.,0.,
 0.,1.4723659,-0.3680915,-0.2817497,-0.2817497,-0.2817497,-0.3680915,-0
 .2817497,-0.2817497,-0.2817497,-0.3680915,-0.3680915,-0.2817497,0.2817
 497,-0.2817497,-0.3680915,0.2817497,0.2817497,0.2817497,-0.3680915,-0.
 3680915,0.2817497,-0.2817497,0.2817497,-0.3680915,0.2817497,-0.2817497
 ,0.2817497,-0.3680915,-0.3680915,0.2817497,0.2817497,0.2817497,-0.3680
 915,-0.2817497,0.2817497,-0.2817497,-0.3680915\Polar=99.0555532,0.,99.
 0555532,0.,0.,99.0555532\Quadrupole=0.,0.,0.,0.,0.,0.\PG=TD [O(N1),4C3
 (H1)]\NImag=0\\0.51164027,0.,0.51164027,0.,0.,0.51164027,-0.12791007,-
 0.07322620,-0.07322620,0.12264104,-0.07322620,-0.12791007,-0.07322620,
 0.08037164,0.12264104,-0.07322620,-0.07322620,-0.12791007,0.08037164,0
 .08037164,0.12264104,-0.12791007,-0.07322620,0.07322620,-0.01037657,-0
 .00714544,0.00454244,0.12264104,-0.07322620,-0.12791007,0.07322620,-0.
 00714544,-0.01037657,0.00454244,0.08037164,0.12264104,0.07322620,0.073
 22620,-0.12791007,-0.00454244,-0.00454244,0.02602216,-0.08037164,-0.08
 037164,0.12264104,-0.12791007,0.07322620,-0.07322620,-0.01037657,0.004
 54244,-0.00714544,0.02602216,-0.00454244,0.00454244,0.12264104,0.07322
 620,-0.12791007,0.07322620,-0.00454244,0.02602216,-0.00454244,0.004542
 44,-0.01037656,0.00714544,-0.08037164,0.12264104,-0.07322620,0.0732262
 0,-0.12791007,-0.00714544,0.00454244,-0.01037657,-0.00454244,0.0071454
 4,-0.01037656,0.08037164,-0.08037164,0.12264104,-0.12791007,0.07322620
 ,0.07322620,0.02602216,-0.00454244,-0.00454244,-0.01037657,0.00454244,
 0.00714544,-0.01037657,0.00714544,0.00454244,0.12264104,0.07322620,-0.
 12791007,-0.07322620,0.00454244,-0.01037656,-0.00714544,-0.00454244,0.
 02602216,0.00454244,0.00714544,-0.01037657,-0.00454244,-0.08037164,0.1
 2264104,0.07322620,-0.07322620,-0.12791007,0.00454244,-0.00714544,-0.0
 1037656,0.00714544,-0.00454244,-0.01037657,-0.00454244,0.00454244,0.02
 602216,-0.08037164,0.08037164,0.12264104\\0.,0.,0.,0.00000005,0.000000
 05,0.00000005,-0.00000005,-0.00000005,0.00000005,-0.00000005,0.0000000
 5,-0.00000005,0.00000005,-0.00000005,-0.00000005\\\@


 SCIENCE AND PEACE WILL TRIUMPH OVER IGNORANCE AND WAR

                          -- PASTEUR
 Job cpu time:       0 days  0 hours  1 minutes 51.3 seconds.
 Elapsed time:       0 days  0 hours  0 minutes  9.3 seconds.
 File lengths (MBytes):  RWF=     10 Int=      0 D2E=      0 Chk=      2 Scr=      1
 Normal termination of Gaussian 16 at Fri Jun 17 20:27:31 2022.
