 Entering Gaussian System, Link 0=g16
 AtFile(1): pcseg2.gbs
            -H     0
            S   4   1.00
                  0.754732D+02           0.427821D-02
                  0.113575D+02           0.328672D-01
                  0.260081D+01           0.159578D+00
                  0.735503D+00           0.500000D+00
            S   1   1.00
                  0.231761D+00           1.0000000
            S   1   1.00
                  0.741675D-01           1.0000000
            P   1   1.00
                  0.160000D+01           1.0000000
            P   1   1.00
                  0.450000D+00           1.0000000
            D   1   1.00
                  0.125000D+01           1.0000000
            ****
            -C     0
            S   7   1.00
                  0.731999D+04           0.695369D-03
                  0.109818D+04           0.537138D-02
                  0.250014D+03           0.274734D-01
                  0.707586D+02           0.105078D+00
                  0.228595D+02           0.291262D+00
                  0.803936D+01           0.500000D+00
                  0.289309D+01           0.362224D+00
            S   2   1.00
                  0.521640D+01          -0.957844D-01
                  0.556124D+00           0.500000D+00
            S   1   1.00
                  0.228813D+00           1.0000000
            S   1   1.00
                  0.936338D-01           1.0000000
            P   4   1.00
                  0.339855D+02           0.818395D-02
                  0.772957D+01           0.586921D-01
                  0.224954D+01           0.222514D+00
                  0.767681D+00           0.500000D+00
            P   1   1.00
                  0.263283D+00           1.0000000
            P   1   1.00
                  0.848744D-01           1.0000000
            D   1   1.00
                  0.140000D+01           1.0000000
            D   1   1.00
                  0.450000D+00           1.0000000
            F   1   1.00
                  0.950000D+00           1.0000000
            ****
            -O     0
            S   7   1.00
                  0.135887D+05           0.665492D-03
                  0.203847D+04           0.514222D-02
                  0.464041D+03           0.263472D-01
                  0.131339D+03           0.101500D+00
                  0.425340D+02           0.285877D+00
                  0.150429D+02           0.500000D+00
                  0.546616D+01           0.368211D+00
            S   2   1.00
                  0.100915D+02          -0.100084D+00
                  0.110429D+01           0.500000D+00
            S   1   1.00
                  0.448082D+00           1.0000000
            S   1   1.00
                  0.175325D+00           1.0000000
            P   4   1.00
                  0.608220D+02           0.908253D-02
                  0.140332D+02           0.645878D-01
                  0.418244D+01           0.241502D+00
                  0.142490D+01           0.500000D+00
            P   1   1.00
                  0.478741D+00           1.0000000
            P   1   1.00
                  0.146257D+00           1.0000000
            D   1   1.00
                  0.220000D+01           1.0000000
            D   1   1.00
                  0.650000D+00           1.0000000
            F   1   1.00
                  0.110000D+01           1.0000000
            ****
            -N     0
            S   7   1.00
                  0.101643D+05           0.682757D-03
                  0.152481D+04           0.527488D-02
                  0.347119D+03           0.270037D-01
                  0.982389D+02           0.103673D+00
                  0.317799D+02           0.289575D+00
                  0.112240D+02           0.500000D+00
                  0.406611D+01           0.364621D+00
            S   2   1.00
                  0.747898D+01          -0.975681D-01
                  0.805040D+00           0.500000D+00
            S   1   1.00
                  0.324626D+00           1.0000000
            S   1   1.00
                  0.128132D+00           1.0000000
            P   4   1.00
                  0.482704D+02           0.829547D-02
                  0.110815D+02           0.596223D-01
                  0.326643D+01           0.227889D+00
                  0.111680D+01           0.500000D+00
            P   1   1.00
                  0.382049D+00           1.0000000
            P   1   1.00
                  0.121222D+00           1.0000000
            D   1   1.00
                  0.180000D+01           1.0000000
            D   1   1.00
                  0.550000D+00           1.0000000
            F   1   1.00
                  0.102000D+01           1.0000000
            ****
            -F     0
            S   7   1.00
                  0.174507D+05           0.655972D-03
                  0.261768D+04           0.506944D-02
                  0.595857D+03           0.259899D-01
                  0.168651D+03           0.100353D+00
                  0.546654D+02           0.284095D+00
                  0.193717D+02           0.500000D+00
                  0.706202D+01           0.370721D+00
            S   2   1.00
                  0.131197D+02          -0.101997D+00
                  0.145046D+01           0.500000D+00
            S   1   1.00
                  0.588255D+00           1.0000000
            S   1   1.00
                  0.227960D+00           1.0000000
            P   4   1.00
                  0.779407D+02           0.931135D-02
                  0.180425D+02           0.663964D-01
                  0.542342D+01           0.246386D+00
                  0.184876D+01           0.500000D+00
            P   1   1.00
                  0.617455D+00           1.0000000
            P   1   1.00
                  0.185496D+00           1.0000000
            D   1   1.00
                  0.280000D+01           1.0000000
            D   1   1.00
                  0.800000D+00           1.0000000
            F   1   1.00
                  0.120000D+01           1.0000000
            ****
            -Cl     0
            S   8   1.00
                  0.154272D+06           0.222473D-03
                  0.231232D+05           0.172590D-02
                  0.526257D+04           0.899286D-02
                  0.148995D+04           0.367724D-01
                  0.485417D+03           0.121446D+00
                  0.174634D+03           0.304148D+00
                  0.672393D+02           0.500000D+00
                  0.265780D+02           0.360252D+00
            S   3   1.00
                  0.131826D+03          -0.531330D-01
                  0.400703D+02          -0.233346D+00
                  0.789448D+01           0.500000D+00
            S   2   1.00
                  0.427711D+01           0.500000D+00
                  0.196233D+01           0.370517D+00
            S   1   1.00
                  0.520793D+00           1.0000000
            S   1   1.00
                  0.181633D+00           1.0000000
            P   7   1.00
                  0.124440D+04           0.988206D-03
                  0.295109D+03           0.829674D-02
                  0.947224D+02           0.430906D-01
                  0.352588D+02           0.148443D+00
                  0.144211D+02           0.344744D+00
                  0.610371D+01           0.500000D+00
                  0.258886D+01           0.348278D+00
            P   2   1.00
                  0.109447D+02          -0.196768D-01
                  0.104413D+01           0.500000D+00
            P   1   1.00
                  0.376184D+00           1.0000000
            P   1   1.00
                  0.120613D+00           1.0000000
            D   1   1.00
                  0.231000D+01           1.0000000
            D   1   1.00
                  0.520000D+00           1.0000000
            F   1   1.00
                  0.720000D+00           1.0000000
            ****
            -S     0
            S   8   1.00
                  0.134700D+06           0.226231D-03
                  0.201904D+05           0.175488D-02
                  0.459528D+04           0.914190D-02
                  0.130109D+04           0.373551D-01
                  0.423902D+03           0.123121D+00
                  0.152485D+03           0.306801D+00
                  0.586925D+02           0.500000D+00
                  0.231461D+02           0.354358D+00
            S   3   1.00
                  0.116327D+03          -0.491772D-01
                  0.352841D+02          -0.215962D+00
                  0.677831D+01           0.500000D+00
            S   2   1.00
                  0.360404D+01           0.500000D+00
                  0.164871D+01           0.366278D+00
            S   1   1.00
                  0.421821D+00           1.0000000
            S   1   1.00
                  0.147554D+00           1.0000000
            P   7   1.00
                  0.104863D+04           0.105273D-02
                  0.248717D+03           0.879338D-02
                  0.797887D+02           0.453358D-01
                  0.296023D+02           0.154476D+00
                  0.120627D+02           0.352366D+00
                  0.507628D+01           0.500000D+00
                  0.213375D+01           0.346429D+00
            P   2   1.00
                  0.928958D+01          -0.185932D-01
                  0.837819D+00           0.500000D+00
            P   1   1.00
                  0.301495D+00           1.0000000
            P   1   1.00
                  0.974740D-01           1.0000000
            D   1   1.00
                  0.210000D+01           1.0000000
            D   1   1.00
                  0.480000D+00           1.0000000
            F   1   1.00
                  0.660000D+00           1.0000000
            ****
            -Si     0
            S    8   1.00
                  0.996133D+05           0.235546D-03
                  0.149311D+05           0.182707D-02
                  0.339820D+04           0.951425D-02
                  0.962140D+03           0.388172D-01
                  0.313430D+03           0.127328D+00
                  0.112683D+03           0.313522D+00
                  0.433372D+02           0.500000D+00
                  0.170029D+02           0.340347D+00
            S    3   1.00
                  0.884208D+02          -0.404451D-01
                  0.266756D+02          -0.178059D+00
                  0.479640D+01           0.500000D+00
            S    2   1.00
                  0.239385D+01           0.500000D+00
                  0.108333D+01           0.338016D+00
            S    1   1.00
                  0.252420D+00           1.0000000
            S    1   1.00
                  0.891210D-01           1.0000000
            P    7   1.00
                  0.709901D+03           0.123028D-02
                  0.168426D+03           0.101366D-01
                  0.539946D+02           0.511840D-01
                  0.198646D+02           0.169967D+00
                  0.801369D+01           0.370717D+00
                  0.331870D+01           0.500000D+00
                  0.136112D+01           0.344128D+00
            P    2   1.00
                  0.622158D+01          -0.166609D-01
                  0.503049D+00           0.500000D+00
            P    1   1.00
                  0.179848D+00           1.0000000
            P    1   1.00
                  0.591912D-01           1.0000000
            D    1   1.00
                  0.168000D+01           1.0000000
            D    1   1.00
                  0.380000D+00           1.0000000
            F    1   1.00
                  0.540000D+00           1.0000000
            ****
            -P     0
            S    8   1.00
                  0.116416D+06           0.230715D-03
                  0.174500D+05           0.178960D-02
                  0.397149D+04           0.932116D-02
                  0.112447D+04           0.380591D-01
                  0.366347D+03           0.125148D+00
                  0.131757D+03           0.310022D+00
                  0.506988D+02           0.500000D+00
                  0.199436D+02           0.347528D+00
            S    3   1.00
                  0.101878D+03          -0.446755D-01
                  0.308249D+02          -0.196376D+00
                  0.573688D+01           0.500000D+00
            S    2   1.00
                  0.296868D+01           0.500000D+00
                  0.135315D+01           0.355098D+00
            S    1   1.00
                  0.332196D+00           1.0000000
            S    1   1.00
                  0.116229D+00           1.0000000
            P    7   1.00
                  0.873928D+03           0.112375D-02
                  0.207298D+03           0.933330D-02
                  0.664628D+02           0.477213D-01
                  0.245665D+02           0.160733D+00
                  0.996820D+01           0.359760D+00
                  0.416536D+01           0.500000D+00
                  0.173022D+01           0.346593D+00
            P    2   1.00
                  0.772530D+01          -0.175718D-01
                  0.657252D+00           0.500000D+00
            P    1   1.00
                  0.239903D+00           1.0000000
            P    1   1.00
                  0.800988D-01           1.0000000
            D    1   1.00
                  0.189000D+01           1.0000000
            D    1   1.00
                  0.430000D+00           1.0000000
            F    1   1.00
                  0.600000D+00           1.0000000
            ****
            
 Initial command:
 /usr/local/apps/g16_b01_avx/g16/l1.exe "/wrk/irikura/Gau-23470.inp" -scrdir="/wrk/irikura/"
 Entering Link 1 = /usr/local/apps/g16_b01_avx/g16/l1.exe PID=     23472.
  
 Copyright (c) 1988-2017, Gaussian, Inc.  All Rights Reserved.
  
 This is part of the Gaussian(R) 16 program.  It is based on
 the Gaussian(R) 09 system (copyright 2009, Gaussian, Inc.),
 the Gaussian(R) 03 system (copyright 2003, Gaussian, Inc.),
 the Gaussian(R) 98 system (copyright 1998, Gaussian, Inc.),
 the Gaussian(R) 94 system (copyright 1995, Gaussian, Inc.),
 the Gaussian 92(TM) system (copyright 1992, Gaussian, Inc.),
 the Gaussian 90(TM) system (copyright 1990, Gaussian, Inc.),
 the Gaussian 88(TM) system (copyright 1988, Gaussian, Inc.),
 the Gaussian 86(TM) system (copyright 1986, Carnegie Mellon
 University), and the Gaussian 82(TM) system (copyright 1983,
 Carnegie Mellon University). Gaussian is a federally registered
 trademark of Gaussian, Inc.
  
 This software contains proprietary and confidential information,
 including trade secrets, belonging to Gaussian, Inc.
  
 This software is provided under written license and may be
 used, copied, transmitted, or stored only in accord with that
 written license.
  
 The following legend is applicable only to US Government
 contracts under FAR:
  
                    RESTRICTED RIGHTS LEGEND
  
 Use, reproduction and disclosure by the US Government is
 subject to restrictions as set forth in subparagraphs (a)
 and (c) of the Commercial Computer Software - Restricted
 Rights clause in FAR 52.227-19.
  
 Gaussian, Inc.
 340 Quinnipiac St., Bldg. 40, Wallingford CT 06492
  
  
 ---------------------------------------------------------------
 Warning -- This program may not be used in any manner that
 competes with the business of Gaussian, Inc. or will provide
 assistance to any competitor of Gaussian, Inc.  The licensee
 of this program is prohibited from giving any competitor of
 Gaussian, Inc. access to this program.  By using this program,
 the user acknowledges that Gaussian, Inc. is engaged in the
 business of creating and licensing software in the field of
 computational chemistry and represents and warrants to the
 licensee that it is not a competitor of Gaussian, Inc. and that
 it will not use this program in any manner prohibited above.
 ---------------------------------------------------------------
  

 Cite this work as:
 Gaussian 16, Revision B.01,
 M. J. Frisch, G. W. Trucks, H. B. Schlegel, G. E. Scuseria, 
 M. A. Robb, J. R. Cheeseman, G. Scalmani, V. Barone, 
 G. A. Petersson, H. Nakatsuji, X. Li, M. Caricato, A. V. Marenich, 
 J. Bloino, B. G. Janesko, R. Gomperts, B. Mennucci, H. P. Hratchian, 
 J. V. Ortiz, A. F. Izmaylov, J. L. Sonnenberg, D. Williams-Young, 
 F. Ding, F. Lipparini, F. Egidi, J. Goings, B. Peng, A. Petrone, 
 T. Henderson, D. Ranasinghe, V. G. Zakrzewski, J. Gao, N. Rega, 
 G. Zheng, W. Liang, M. Hada, M. Ehara, K. Toyota, R. Fukuda, 
 J. Hasegawa, M. Ishida, T. Nakajima, Y. Honda, O. Kitao, H. Nakai, 
 T. Vreven, K. Throssell, J. A. Montgomery, Jr., J. E. Peralta, 
 F. Ogliaro, M. J. Bearpark, J. J. Heyd, E. N. Brothers, K. N. Kudin, 
 V. N. Staroverov, T. A. Keith, R. Kobayashi, J. Normand, 
 K. Raghavachari, A. P. Rendell, J. C. Burant, S. S. Iyengar, 
 J. Tomasi, M. Cossi, J. M. Millam, M. Klene, C. Adamo, R. Cammi, 
 J. W. Ochterski, R. L. Martin, K. Morokuma, O. Farkas, 
 J. B. Foresman, and D. J. Fox, Gaussian, Inc., Wallingford CT, 2016.
 
 ******************************************
 Gaussian 16:  ES64L-G16RevB.01 20-Dec-2017
                 3-Feb-2022 
 ******************************************
 %mem=500mw
 --------------------
 # b3lyp/gen opt freq
 --------------------
 1/18=20,19=15,26=3,38=1/1,3;
 2/9=110,12=2,17=6,18=5,40=1/2;
 3/5=7,11=2,25=1,30=1,71=1,74=-5/1,2,3;
 4//1;
 5/5=2,38=5/2;
 6/7=2,8=2,9=2,10=2,28=1/1;
 7//1,2,3,16;
 1/18=20,19=15,26=3/3(2);
 2/9=110/2;
 99//99;
 2/9=110/2;
 3/5=7,6=1,11=2,25=1,30=1,71=1,74=-5,82=7/1,2,3;
 4/5=5,16=3,69=1/1;
 5/5=2,38=5/2;
 7//1,2,3,16;
 1/18=20,19=15,26=3/3(-5);
 2/9=110/2;
 6/7=2,8=2,9=2,10=2,19=2,28=1/1;
 99/9=1/99;
 -----------------
 NO, B3LYP/pcseg-2
 -----------------
 Symbolic Z-matrix:
 Charge =  0 Multiplicity = 2
 N
 O                    1    r
       Variables:
  r                     1.3                      
 

 GradGradGradGradGradGradGradGradGradGradGradGradGradGradGradGradGradGrad
 Berny optimization.
 Initialization pass.
                           ----------------------------
                           !    Initial Parameters    !
                           ! (Angstroms and Degrees)  !
 --------------------------                            --------------------------
 ! Name  Definition              Value          Derivative Info.                !
 --------------------------------------------------------------------------------
 ! R1    R(1,2)                  1.3            estimate D2E/DX2                !
 --------------------------------------------------------------------------------
 Trust Radius=3.00D-01 FncErr=1.00D-07 GrdErr=1.00D-06 EigMax=2.50D+02 EigMin=1.00D-04
 Number of steps in this run=     20 maximum allowed number of steps=    100.
 GradGradGradGradGradGradGradGradGradGradGradGradGradGradGradGradGradGrad

                          Input orientation:                          
 ---------------------------------------------------------------------
 Center     Atomic      Atomic             Coordinates (Angstroms)
 Number     Number       Type             X           Y           Z
 ---------------------------------------------------------------------
      1          7           0        0.000000    0.000000    0.000000
      2          8           0        0.000000    0.000000    1.300000
 ---------------------------------------------------------------------
 Stoichiometry    NO(2)
 Framework group  C*V[C*(NO)]
 Deg. of freedom     1
 Full point group                 C*V     NOp   4
 Largest Abelian subgroup         C2V     NOp   4
 Largest concise Abelian subgroup C1      NOp   1
                         Standard orientation:                         
 ---------------------------------------------------------------------
 Center     Atomic      Atomic             Coordinates (Angstroms)
 Number     Number       Type             X           Y           Z
 ---------------------------------------------------------------------
      1          7           0        0.000000    0.000000   -0.693333
      2          8           0        0.000000    0.000000    0.606667
 ---------------------------------------------------------------------
 Rotational constants (GHZ):           0.0000000          40.0513649          40.0513649
 General basis read from cards:  (5D, 7F)
 There are    32 symmetry adapted cartesian basis functions of A1  symmetry.
 There are     6 symmetry adapted cartesian basis functions of A2  symmetry.
 There are    16 symmetry adapted cartesian basis functions of B1  symmetry.
 There are    16 symmetry adapted cartesian basis functions of B2  symmetry.
 There are    26 symmetry adapted basis functions of A1  symmetry.
 There are     6 symmetry adapted basis functions of A2  symmetry.
 There are    14 symmetry adapted basis functions of B1  symmetry.
 There are    14 symmetry adapted basis functions of B2  symmetry.
    60 basis functions,   102 primitive gaussians,    70 cartesian basis functions
     8 alpha electrons        7 beta electrons
       nuclear repulsion energy        22.7953260089 Hartrees.
 NAtoms=    2 NActive=    2 NUniq=    2 SFac= 1.00D+00 NAtFMM=   60 NAOKFM=F Big=F
 Integral buffers will be    131072 words long.
 Raffenetti 2 integral format.
 Two-electron integral symmetry is turned on.
 One-electron integrals computed using PRISM.
 NBasis=    60 RedAO= T EigKep=  1.90D-03  NBF=    26     6    14    14
 NBsUse=    60 1.00D-06 EigRej= -1.00D+00 NBFU=    26     6    14    14
 ExpMin= 1.21D-01 ExpMax= 1.36D+04 ExpMxC= 4.64D+02 IAcc=3 IRadAn=         5 AccDes= 0.00D+00
 Harris functional with IExCor=  402 and IRadAn=       5 diagonalized for initial guess.
 HarFok:  IExCor=  402 AccDes= 0.00D+00 IRadAn=         5 IDoV= 1 UseB2=F ITyADJ=14
 ICtDFT=  3500011 ScaDFX=  1.000000  1.000000  1.000000  1.000000
 FoFCou: FMM=F IPFlag=           0 FMFlag=      100000 FMFlg1=           0
         NFxFlg=           0 DoJE=T BraDBF=F KetDBF=T FulRan=T
         wScrn=  0.000000 ICntrl=       500 IOpCl=  0 I1Cent=   200000004 NGrid=           0
         NMat0=    1 NMatS0=      1 NMatT0=    0 NMatD0=    1 NMtDS0=    0 NMtDT0=    0
 Petite list used in FoFCou.
 Initial guess orbital symmetries:
 Alpha Orbitals:
       Occupied  (SG) (SG) (SG) (SG) (SG) (PI) (PI) (PI)
       Virtual   (PI) (SG) (SG) (PI) (PI) (SG) (SG) (PI) (PI) (SG)
                 (DLTA) (DLTA) (PI) (PI) (SG) (DLTA) (DLTA) (PI)
                 (PI) (SG) (SG) (PI) (PI) (PI) (PI) (SG) (SG) (DLTA)
                 (DLTA) (PHI) (PHI) (PI) (PI) (PHI) (PHI) (SG)
                 (SG) (DLTA) (DLTA) (DLTA) (DLTA) (PI) (PI) (PI)
                 (PI) (SG) (DLTA) (DLTA) (PI) (PI) (SG) (SG)
 Beta  Orbitals:
       Occupied  (SG) (SG) (SG) (SG) (SG) (PI) (PI)
       Virtual   (PI) (PI) (SG) (SG) (PI) (PI) (SG) (SG) (PI) (PI)
                 (SG) (DLTA) (DLTA) (PI) (PI) (SG) (DLTA) (DLTA)
                 (PI) (PI) (SG) (SG) (PI) (PI) (PI) (PI) (SG) (SG)
                 (DLTA) (DLTA) (PHI) (PHI) (PI) (PI) (PHI) (PHI)
                 (SG) (SG) (DLTA) (DLTA) (DLTA) (DLTA) (PI) (PI)
                 (PI) (PI) (SG) (DLTA) (DLTA) (PI) (PI) (SG) (SG)
 Initial guess <Sx>= 0.0000 <Sy>= 0.0000 <Sz>= 0.5000 <S**2>= 0.7500 S= 0.5000
 Keep R1 and R2 ints in memory in symmetry-blocked form, NReq=3642000.
 Requested convergence on RMS density matrix=1.00D-08 within 128 cycles.
 Requested convergence on MAX density matrix=1.00D-06.
 Requested convergence on             energy=1.00D-06.
 No special actions if energy rises.
 Integral accuracy reduced to 1.0D-05 until final iterations.
 Initial convergence to 1.0D-05 achieved.  Increase integral accuracy.
 SCF Done:  E(UB3LYP) =  -129.912485545     A.U. after   15 cycles
            NFock= 15  Conv=0.66D-08     -V/T= 2.0064
 <Sx>= 0.0000 <Sy>= 0.0000 <Sz>= 0.5000 <S**2>= 0.7556 S= 0.5028
 <L.S>=  0.00000000000    
 Annihilation of the first spin contaminant:
 S**2 before annihilation     0.7556,   after     0.7500

 **********************************************************************

            Population analysis using the SCF Density.

 **********************************************************************

 Orbital symmetries:
 Alpha Orbitals:
       Occupied  (SG) (SG) (SG) (SG) (PI) (SG) (PI) (PI)
       Virtual   (PI) (SG) (SG) (PI) (PI) (SG) (SG) (PI) (PI) (SG)
                 (DLTA) (DLTA) (PI) (PI) (?A) (?A) (?A) (PI) (PI)
                 (SG) (SG) (PI) (PI) (PI) (PI) (SG) (SG) (DLTA)
                 (DLTA) (PHI) (PHI) (PI) (PI) (PHI) (PHI) (SG)
                 (SG) (DLTA) (DLTA) (DLTA) (DLTA) (PI) (PI) (PI)
                 (PI) (SG) (DLTA) (DLTA) (PI) (PI) (SG) (SG)
 Beta  Orbitals:
       Occupied  (SG) (SG) (SG) (SG) (SG) (PI) (PI)
       Virtual   (PI) (PI) (SG) (SG) (PI) (PI) (SG) (SG) (PI) (PI)
                 (SG) (?A) (?A) (PI) (PI) (?A) (?A) (?A) (PI) (PI)
                 (SG) (SG) (PI) (PI) (PI) (PI) (SG) (SG) (DLTA)
                 (DLTA) (?B) (?B) (?B) (?B) (PHI) (PHI) (SG) (SG)
                 (DLTA) (DLTA) (DLTA) (DLTA) (PI) (PI) (PI) (PI)
                 (?C) (?C) (?C) (PI) (PI) (SG) (SG)
 Unable to determine electronic state:  partially filled degenerate orbitals.
 Alpha  occ. eigenvalues --  -19.27472 -14.49796  -1.15438  -0.72625  -0.50036
 Alpha  occ. eigenvalues --   -0.48440  -0.46896  -0.27708
 Alpha virt. eigenvalues --   -0.16703   0.11440   0.19792   0.24493   0.24896
 Alpha virt. eigenvalues --    0.30140   0.33125   0.37034   0.37501   0.68036
 Alpha virt. eigenvalues --    1.06391   1.06586   1.13765   1.13769   1.47524
 Alpha virt. eigenvalues --    1.50507   1.50636   1.67650   1.69498   1.86817
 Alpha virt. eigenvalues --    1.91140   1.94976   1.95484   2.31752   2.32280
 Alpha virt. eigenvalues --    2.35565   2.75874   3.34854   3.34993   3.49811
 Alpha virt. eigenvalues --    3.49858   3.60762   3.61194   3.94868   3.94881
 Alpha virt. eigenvalues --    3.96088   4.13532   4.41375   4.41531   4.87492
 Alpha virt. eigenvalues --    4.88063   5.09121   5.10339   5.40115   5.40294
 Alpha virt. eigenvalues --    5.72296   5.93562   5.93776   6.37070   6.37268
 Alpha virt. eigenvalues --    6.72518   8.01102
  Beta  occ. eigenvalues --  -19.26553 -14.48005  -1.13261  -0.68527  -0.46498
  Beta  occ. eigenvalues --   -0.46125  -0.42643
  Beta virt. eigenvalues --   -0.15044  -0.10842   0.12389   0.20845   0.25358
  Beta virt. eigenvalues --    0.26927   0.31006   0.33681   0.37630   0.38801
  Beta virt. eigenvalues --    0.68472   1.09536   1.09566   1.14065   1.16757
  Beta virt. eigenvalues --    1.48868   1.52761   1.52768   1.70843   1.74293
  Beta virt. eigenvalues --    1.88005   1.93001   1.95847   1.98360   2.32637
  Beta virt. eigenvalues --    2.35511   2.37222   2.76854   3.36946   3.36959
  Beta virt. eigenvalues --    3.54155   3.54183   3.61161   3.63774   3.96834
  Beta virt. eigenvalues --    3.96835   3.98138   4.15234   4.43618   4.43662
  Beta virt. eigenvalues --    4.94580   4.94598   5.11376   5.15220   5.40481
  Beta virt. eigenvalues --    5.43469   5.74228   5.96753   5.96779   6.37322
  Beta virt. eigenvalues --    6.40074   6.73689   8.02099
          Condensed to atoms (all electrons):
               1          2
     1  N    6.627546   0.250521
     2  O    0.250521   7.871412
          Atomic-Atomic Spin Densities.
               1          2
     1  N    0.941054  -0.187094
     2  O   -0.187094   0.433133
 Mulliken charges and spin densities:
               1          2
     1  N    0.121933   0.753961
     2  O   -0.121933   0.246039
 Sum of Mulliken charges =  -0.00000   1.00000
 Mulliken charges and spin densities with hydrogens summed into heavy atoms:
               1          2
     1  N    0.121933   0.753961
     2  O   -0.121933   0.246039
 Electronic spatial extent (au):  <R**2>=             46.6261
 Charge=             -0.0000 electrons
 Dipole moment (field-independent basis, Debye):
    X=              0.0000    Y=              0.0000    Z=             -0.2899  Tot=              0.2899
 Quadrupole moment (field-independent basis, Debye-Ang):
   XX=            -10.0109   YY=            -11.0853   ZZ=            -11.3125
   XY=              0.0000   XZ=              0.0000   YZ=              0.0000
 Traceless Quadrupole moment (field-independent basis, Debye-Ang):
   XX=              0.7920   YY=             -0.2824   ZZ=             -0.5096
   XY=              0.0000   XZ=              0.0000   YZ=              0.0000
 Octapole moment (field-independent basis, Debye-Ang**2):
  XXX=              0.0000  YYY=              0.0000  ZZZ=              2.3976  XYY=              0.0000
  XXY=              0.0000  XXZ=              0.3732  XZZ=              0.0000  YZZ=              0.0000
  YYZ=              0.7586  XYZ=              0.0000
 Hexadecapole moment (field-independent basis, Debye-Ang**3):
 XXXX=             -8.2714 YYYY=             -9.7957 ZZZZ=            -37.1131 XXXY=              0.0000
 XXXZ=              0.0000 YYYX=              0.0000 YYYZ=              0.0000 ZZZX=              0.0000
 ZZZY=              0.0000 XXYY=             -3.0112 XXZZ=             -7.1731 YYZZ=             -8.2505
 XXYZ=              0.0000 YYXZ=              0.0000 ZZXY=              0.0000
 N-N= 2.279532600886D+01 E-N=-3.513395091445D+02  KE= 1.290847744104D+02
 Symmetry A1   KE= 1.181899161206D+02
 Symmetry A2   KE= 2.762538915743D-35
 Symmetry B1   KE= 4.133946361478D+00
 Symmetry B2   KE= 6.760911928291D+00
 Symmetry A1   SP=-3.895723905956D-15
 Symmetry A2   SP=-6.717085011270D-36
 Symmetry B1   SP=-5.234257038217D-15
 Symmetry B2   SP= 1.000000000000D+00
                          Isotropic Fermi Contact Couplings
        Atom                 a.u.       MegaHertz       Gauss      10(-4) cm-1
     1  N(14)              0.12743      41.17226      14.69129      13.73359
     2  O(17)              0.08238     -49.94035     -17.81996     -16.65831
 --------------------------------------------------------
       Center         ----  Spin Dipole Couplings  ----
                      3XX-RR        3YY-RR        3ZZ-RR
 --------------------------------------------------------
     1   Atom       -0.977919      2.094183     -1.116264
     2   Atom       -1.060139      1.837936     -0.777797
 --------------------------------------------------------
                        XY            XZ            YZ
 --------------------------------------------------------
     1   Atom        0.000000      0.000000      0.000000
     2   Atom        0.000000      0.000000      0.000000
 --------------------------------------------------------


 ---------------------------------------------------------------------------------
              Anisotropic Spin Dipole Couplings in Principal Axis System
 ---------------------------------------------------------------------------------

       Atom             a.u.   MegaHertz   Gauss  10(-4) cm-1        Axes

              Baa    -1.1163   -43.052   -15.362   -14.361  0.0000  0.0000  1.0000
     1 N(14)  Bbb    -0.9779   -37.716   -13.458   -12.581  1.0000  0.0000  0.0000
              Bcc     2.0942    80.768    28.820    26.941 -0.0000  1.0000  0.0000
 
              Baa    -1.0601    76.711    27.372    25.588  1.0000  0.0000  0.0000
     2 O(17)  Bbb    -0.7778    56.281    20.082    18.773  0.0000  0.0000  1.0000
              Bcc     1.8379  -132.992   -47.455   -44.361 -0.0000  1.0000  0.0000
 

 ---------------------------------------------------------------------------------

 Calling FoFJK, ICntrl=      2127 FMM=F ISym2X=1 I1Cent= 0 IOpClX= 1 NMat=1 NMatS=1 NMatT=0.
 ***** Axes restored to original set *****
 -------------------------------------------------------------------
 Center     Atomic                   Forces (Hartrees/Bohr)
 Number     Number              X              Y              Z
 -------------------------------------------------------------------
      1        7          -0.000000000   -0.000000000    0.186984563
      2        8          -0.000000000   -0.000000000   -0.186984563
 -------------------------------------------------------------------
 Cartesian Forces:  Max     0.186984563 RMS     0.107955588

 GradGradGradGradGradGradGradGradGradGradGradGradGradGradGradGradGradGrad
 Berny optimization.
 FormGI is forming the generalized inverse of G from B-inverse, IUseBI=4.
 Internal  Forces:  Max     0.186984563 RMS     0.186984563
 Search for a local minimum.
 Step number   1 out of a maximum of   20
 All quantities printed in internal units (Hartrees-Bohrs-Radians)
 Mixed Optimization -- RFO/linear search
 Second derivative matrix not updated -- first step.
 The second derivative matrix:
                          R1
           R1           0.67193
 ITU=  0
     Eigenvalues ---    0.67193
 RFO step:  Lambda=-4.85290085D-02 EMin= 6.71931351D-01
 Linear search not attempted -- first point.
 Iteration  1 RMS(Cart)=  0.14142136 RMS(Int)=  0.05953484
 Iteration  2 RMS(Cart)=  0.04209749 RMS(Int)=  0.00000000
 Iteration  3 RMS(Cart)=  0.00000000 RMS(Int)=  0.00000000
 ClnCor:  largest displacement from symmetrization is 5.55D-17 for atom     1.
 Variable       Old X    -DE/DX   Delta X   Delta X   Delta X     New X
                                 (Linear)    (Quad)   (Total)
    R1        2.45664  -0.18698   0.00000  -0.25953  -0.25953   2.19711
         Item               Value     Threshold  Converged?
 Maximum Force            0.186985     0.000450     NO 
 RMS     Force            0.186985     0.000300     NO 
 Maximum Displacement     0.129767     0.001800     NO 
 RMS     Displacement     0.183519     0.001200     NO 
 Predicted change in Energy=-2.589892D-02
 GradGradGradGradGradGradGradGradGradGradGradGradGradGradGradGradGradGrad

                          Input orientation:                          
 ---------------------------------------------------------------------
 Center     Atomic      Atomic             Coordinates (Angstroms)
 Number     Number       Type             X           Y           Z
 ---------------------------------------------------------------------
      1          7           0        0.000000    0.000000    0.068670
      2          8           0        0.000000    0.000000    1.231330
 ---------------------------------------------------------------------
 Stoichiometry    NO(2)
 Framework group  C*V[C*(NO)]
 Deg. of freedom     1
 Full point group                 C*V     NOp   4
 Largest Abelian subgroup         C2V     NOp   4
 Largest concise Abelian subgroup C1      NOp   1
                         Standard orientation:                         
 ---------------------------------------------------------------------
 Center     Atomic      Atomic             Coordinates (Angstroms)
 Number     Number       Type             X           Y           Z
 ---------------------------------------------------------------------
      1          7           0        0.000000    0.000000   -0.620085
      2          8           0        0.000000    0.000000    0.542575
 ---------------------------------------------------------------------
 Rotational constants (GHZ):           0.0000000          50.0724111          50.0724111
 Basis read from rwf:  (5D, 7F)
 There are    32 symmetry adapted cartesian basis functions of A1  symmetry.
 There are     6 symmetry adapted cartesian basis functions of A2  symmetry.
 There are    16 symmetry adapted cartesian basis functions of B1  symmetry.
 There are    16 symmetry adapted cartesian basis functions of B2  symmetry.
 There are    26 symmetry adapted basis functions of A1  symmetry.
 There are     6 symmetry adapted basis functions of A2  symmetry.
 There are    14 symmetry adapted basis functions of B1  symmetry.
 There are    14 symmetry adapted basis functions of B2  symmetry.
    60 basis functions,   102 primitive gaussians,    70 cartesian basis functions
     8 alpha electrons        7 beta electrons
       nuclear repulsion energy        25.4880376272 Hartrees.
 NAtoms=    2 NActive=    2 NUniq=    2 SFac= 1.00D+00 NAtFMM=   60 NAOKFM=F Big=F
 Integral buffers will be    131072 words long.
 Raffenetti 2 integral format.
 Two-electron integral symmetry is turned on.
 One-electron integrals computed using PRISM.
 NBasis=    60 RedAO= T EigKep=  1.15D-03  NBF=    26     6    14    14
 NBsUse=    60 1.00D-06 EigRej= -1.00D+00 NBFU=    26     6    14    14
 Initial guess from the checkpoint file:  "/wrk/irikura/Gau-23472.chk"
 B after Tr=     0.000000    0.000000    0.000000
         Rot=    1.000000    0.000000    0.000000    0.000000 Ang=   0.00 deg.
 Initial guess orbital symmetries:
 Alpha Orbitals:
       Occupied  (SG) (SG) (SG) (SG) (PI) (SG) (PI) (?A)
       Virtual   (?A) (SG) (SG) (PI) (PI) (SG) (SG) (PI) (PI) (SG)
                 (DLTA) (DLTA) (PI) (PI) (?B) (?B) (?B) (PI) (PI)
                 (SG) (SG) (?A) (?A) (?A) (?A) (SG) (SG) (DLTA)
                 (DLTA) (PHI) (PHI) (PI) (PI) (PHI) (PHI) (SG)
                 (SG) (DLTA) (DLTA) (DLTA) (DLTA) (PI) (PI) (?A)
                 (?A) (SG) (DLTA) (DLTA) (?A) (?A) (SG) (SG)
 Beta  Orbitals:
       Occupied  (SG) (SG) (SG) (SG) (SG) (PI) (PI)
       Virtual   (PI) (PI) (SG) (SG) (PI) (PI) (SG) (SG) (PI) (PI)
                 (SG) (?A) (?A) (PI) (PI) (?A) (?A) (?A) (PI) (PI)
                 (SG) (SG) (PI) (PI) (PI) (PI) (SG) (SG) (DLTA)
                 (DLTA) (?B) (?B) (?B) (?B) (PHI) (PHI) (SG) (SG)
                 (DLTA) (DLTA) (DLTA) (DLTA) (PI) (PI) (PI) (PI)
                 (?C) (?C) (?C) (PI) (PI) (SG) (SG)
 Initial guess <Sx>= 0.0000 <Sy>= 0.0000 <Sz>= 0.5000 <S**2>= 0.7552 S= 0.5026
 ExpMin= 1.21D-01 ExpMax= 1.36D+04 ExpMxC= 4.64D+02 IAcc=3 IRadAn=         5 AccDes= 0.00D+00
 Harris functional with IExCor=  402 and IRadAn=       5 diagonalized for initial guess.
 HarFok:  IExCor=  402 AccDes= 0.00D+00 IRadAn=         5 IDoV= 1 UseB2=F ITyADJ=14
 ICtDFT=  3500011 ScaDFX=  1.000000  1.000000  1.000000  1.000000
 FoFCou: FMM=F IPFlag=           0 FMFlag=      100000 FMFlg1=           0
         NFxFlg=           0 DoJE=T BraDBF=F KetDBF=T FulRan=T
         wScrn=  0.000000 ICntrl=       500 IOpCl=  0 I1Cent=   200000004 NGrid=           0
         NMat0=    1 NMatS0=      1 NMatT0=    0 NMatD0=    1 NMtDS0=    0 NMtDT0=    0
 Petite list used in FoFCou.
 Keep R1 and R2 ints in memory in symmetry-blocked form, NReq=3642070.
 Requested convergence on RMS density matrix=1.00D-08 within 128 cycles.
 Requested convergence on MAX density matrix=1.00D-06.
 Requested convergence on             energy=1.00D-06.
 No special actions if energy rises.
 Integral accuracy reduced to 1.0D-05 until final iterations.
 Initial convergence to 1.0D-05 achieved.  Increase integral accuracy.
 SCF Done:  E(UB3LYP) =  -129.944802819     A.U. after   15 cycles
            NFock= 15  Conv=0.18D-08     -V/T= 2.0033
 <Sx>= 0.0000 <Sy>= 0.0000 <Sz>= 0.5000 <S**2>= 0.7533 S= 0.5017
 <L.S>=  0.00000000000    
 Annihilation of the first spin contaminant:
 S**2 before annihilation     0.7533,   after     0.7500
 Calling FoFJK, ICntrl=      2127 FMM=F ISym2X=1 I1Cent= 0 IOpClX= 1 NMat=1 NMatS=1 NMatT=0.
 ***** Axes restored to original set *****
 -------------------------------------------------------------------
 Center     Atomic                   Forces (Hartrees/Bohr)
 Number     Number              X              Y              Z
 -------------------------------------------------------------------
      1        7          -0.000000000   -0.000000000    0.033754246
      2        8          -0.000000000   -0.000000000   -0.033754246
 -------------------------------------------------------------------
 Cartesian Forces:  Max     0.033754246 RMS     0.019488023

 GradGradGradGradGradGradGradGradGradGradGradGradGradGradGradGradGradGrad
 Berny optimization.
 Using GEDIIS/GDIIS optimizer.
 Internal  Forces:  Max     0.033754246 RMS     0.033754246
 Search for a local minimum.
 Step number   2 out of a maximum of   20
 All quantities printed in internal units (Hartrees-Bohrs-Radians)
 Mixed Optimization -- RFO/linear search
 Update second derivatives using D2CorX and points    1    2
 DE= -3.23D-02 DEPred=-2.59D-02 R= 1.25D+00
 TightC=F SS=  1.41D+00  RLast= 2.60D-01 DXNew= 5.0454D-01 7.7860D-01
 Trust test= 1.25D+00 RLast= 2.60D-01 DXMaxT set to 5.05D-01
 The second derivative matrix:
                          R1
           R1           0.59040
 ITU=  1  0
 Use linear search instead of GDIIS.
     Eigenvalues ---    0.59040
 RFO step:  Lambda= 0.00000000D+00 EMin= 5.90403653D-01
 Quartic linear search produced a step of  0.12953.
 Iteration  1 RMS(Cart)=  0.02377183 RMS(Int)=  0.00000000
 Iteration  2 RMS(Cart)=  0.00000000 RMS(Int)=  0.00000000
 ClnCor:  largest displacement from symmetrization is 0.00D+00 for atom     0.
 Variable       Old X    -DE/DX   Delta X   Delta X   Delta X     New X
                                 (Linear)    (Quad)   (Total)
    R1        2.19711  -0.03375  -0.03362   0.00000  -0.03362   2.16349
         Item               Value     Threshold  Converged?
 Maximum Force            0.033754     0.000450     NO 
 RMS     Force            0.033754     0.000300     NO 
 Maximum Displacement     0.016809     0.001800     NO 
 RMS     Displacement     0.023772     0.001200     NO 
 Predicted change in Energy=-8.011282D-04
 GradGradGradGradGradGradGradGradGradGradGradGradGradGradGradGradGradGrad

                          Input orientation:                          
 ---------------------------------------------------------------------
 Center     Atomic      Atomic             Coordinates (Angstroms)
 Number     Number       Type             X           Y           Z
 ---------------------------------------------------------------------
      1          7           0        0.000000    0.000000    0.077565
      2          8           0        0.000000    0.000000    1.222435
 ---------------------------------------------------------------------
 Stoichiometry    NO(2)
 Framework group  C*V[C*(NO)]
 Deg. of freedom     1
 Full point group                 C*V     NOp   4
 Largest Abelian subgroup         C2V     NOp   4
 Largest concise Abelian subgroup C1      NOp   1
                         Standard orientation:                         
 ---------------------------------------------------------------------
 Center     Atomic      Atomic             Coordinates (Angstroms)
 Number     Number       Type             X           Y           Z
 ---------------------------------------------------------------------
      1          7           0        0.000000    0.000000   -0.610597
      2          8           0        0.000000    0.000000    0.534273
 ---------------------------------------------------------------------
 Rotational constants (GHZ):           0.0000000          51.6406503          51.6406503
 Basis read from rwf:  (5D, 7F)
 There are    32 symmetry adapted cartesian basis functions of A1  symmetry.
 There are     6 symmetry adapted cartesian basis functions of A2  symmetry.
 There are    16 symmetry adapted cartesian basis functions of B1  symmetry.
 There are    16 symmetry adapted cartesian basis functions of B2  symmetry.
 There are    26 symmetry adapted basis functions of A1  symmetry.
 There are     6 symmetry adapted basis functions of A2  symmetry.
 There are    14 symmetry adapted basis functions of B1  symmetry.
 There are    14 symmetry adapted basis functions of B2  symmetry.
    60 basis functions,   102 primitive gaussians,    70 cartesian basis functions
     8 alpha electrons        7 beta electrons
       nuclear repulsion energy        25.8840957988 Hartrees.
 NAtoms=    2 NActive=    2 NUniq=    2 SFac= 1.00D+00 NAtFMM=   60 NAOKFM=F Big=F
 Integral buffers will be    131072 words long.
 Raffenetti 2 integral format.
 Two-electron integral symmetry is turned on.
 One-electron integrals computed using PRISM.
 NBasis=    60 RedAO= T EigKep=  1.11D-03  NBF=    26     6    14    14
 NBsUse=    60 1.00D-06 EigRej= -1.00D+00 NBFU=    26     6    14    14
 Initial guess from the checkpoint file:  "/wrk/irikura/Gau-23472.chk"
 B after Tr=     0.000000    0.000000    0.000000
         Rot=    1.000000    0.000000    0.000000    0.000000 Ang=   0.00 deg.
 Initial guess orbital symmetries:
 Alpha Orbitals:
       Occupied  (SG) (SG) (SG) (SG) (PI) (PI) (SG) (PI)
       Virtual   (PI) (SG) (SG) (PI) (PI) (SG) (PI) (PI) (SG) (SG)
                 (DLTA) (DLTA) (PI) (PI) (SG) (DLTA) (DLTA) (PI)
                 (PI) (SG) (PI) (SG) (PI) (PI) (PI) (SG) (SG) (DLTA)
                 (DLTA) (PHI) (PHI) (PI) (PI) (PHI) (PHI) (SG)
                 (SG) (DLTA) (DLTA) (DLTA) (DLTA) (PI) (PI) (PI)
                 (PI) (DLTA) (DLTA) (SG) (PI) (PI) (SG) (SG)
 Beta  Orbitals:
       Occupied  (SG) (SG) (SG) (SG) (PI) (SG) (PI)
       Virtual   (PI) (PI) (SG) (SG) (PI) (PI) (SG) (PI) (PI) (SG)
                 (SG) (DLTA) (DLTA) (PI) (PI) (SG) (DLTA) (DLTA)
                 (PI) (PI) (SG) (PI) (SG) (PI) (PI) (PI) (SG) (SG)
                 (DLTA) (DLTA) (PHI) (PHI) (PI) (PI) (PHI) (PHI)
                 (?A) (?B) (?A) (?A) (?B) (?B) (PI) (PI) (PI) (PI)
                 (?C) (?C) (?C) (PI) (PI) (SG) (SG)
 Initial guess <Sx>= 0.0000 <Sy>= 0.0000 <Sz>= 0.5000 <S**2>= 0.7533 S= 0.5016
 Keep R1 and R2 ints in memory in symmetry-blocked form, NReq=3642070.
 Requested convergence on RMS density matrix=1.00D-08 within 128 cycles.
 Requested convergence on MAX density matrix=1.00D-06.
 Requested convergence on             energy=1.00D-06.
 No special actions if energy rises.
 SCF Done:  E(UB3LYP) =  -129.945365465     A.U. after   11 cycles
            NFock= 11  Conv=0.11D-08     -V/T= 2.0027
 <Sx>= 0.0000 <Sy>= 0.0000 <Sz>= 0.5000 <S**2>= 0.7532 S= 0.5016
 <L.S>=  0.00000000000    
 Annihilation of the first spin contaminant:
 S**2 before annihilation     0.7532,   after     0.7500
 Calling FoFJK, ICntrl=      2127 FMM=F ISym2X=1 I1Cent= 0 IOpClX= 1 NMat=1 NMatS=1 NMatT=0.
 ***** Axes restored to original set *****
 -------------------------------------------------------------------
 Center     Atomic                   Forces (Hartrees/Bohr)
 Number     Number              X              Y              Z
 -------------------------------------------------------------------
      1        7          -0.000000000   -0.000000000   -0.001039033
      2        8          -0.000000000   -0.000000000    0.001039033
 -------------------------------------------------------------------
 Cartesian Forces:  Max     0.001039033 RMS     0.000599886

 GradGradGradGradGradGradGradGradGradGradGradGradGradGradGradGradGradGrad
 Berny optimization.
 Using GEDIIS/GDIIS optimizer.
 Internal  Forces:  Max     0.001039033 RMS     0.001039033
 Search for a local minimum.
 Step number   3 out of a maximum of   20
 All quantities printed in internal units (Hartrees-Bohrs-Radians)
 Mixed Optimization -- RFO/linear search
 Update second derivatives using D2CorX and points    2    3
 DE= -5.63D-04 DEPred=-8.01D-04 R= 7.02D-01
 TightC=F SS=  1.41D+00  RLast= 3.36D-02 DXNew= 8.4853D-01 1.0086D-01
 Trust test= 7.02D-01 RLast= 3.36D-02 DXMaxT set to 5.05D-01
 The second derivative matrix:
                          R1
           R1           1.03495
 ITU=  1  1
 Use linear search instead of GDIIS.
     Eigenvalues ---    1.03495
 RFO step:  Lambda= 0.00000000D+00 EMin= 1.03494615D+00
 Quartic linear search produced a step of -0.02806.
 Iteration  1 RMS(Cart)=  0.00066713 RMS(Int)=  0.00000000
 Iteration  2 RMS(Cart)=  0.00000000 RMS(Int)=  0.00000000
 ClnCor:  largest displacement from symmetrization is 0.00D+00 for atom     0.
 Variable       Old X    -DE/DX   Delta X   Delta X   Delta X     New X
                                 (Linear)    (Quad)   (Total)
    R1        2.16349   0.00104   0.00094  -0.00000   0.00094   2.16443
         Item               Value     Threshold  Converged?
 Maximum Force            0.001039     0.000450     NO 
 RMS     Force            0.001039     0.000300     NO 
 Maximum Displacement     0.000472     0.001800     YES
 RMS     Displacement     0.000667     0.001200     YES
 Predicted change in Energy=-5.196741D-07
 GradGradGradGradGradGradGradGradGradGradGradGradGradGradGradGradGradGrad

                          Input orientation:                          
 ---------------------------------------------------------------------
 Center     Atomic      Atomic             Coordinates (Angstroms)
 Number     Number       Type             X           Y           Z
 ---------------------------------------------------------------------
      1          7           0        0.000000    0.000000    0.077315
      2          8           0        0.000000    0.000000    1.222685
 ---------------------------------------------------------------------
 Stoichiometry    NO(2)
 Framework group  C*V[C*(NO)]
 Deg. of freedom     1
 Full point group                 C*V     NOp   4
 Largest Abelian subgroup         C2V     NOp   4
 Largest concise Abelian subgroup C1      NOp   1
                         Standard orientation:                         
 ---------------------------------------------------------------------
 Center     Atomic      Atomic             Coordinates (Angstroms)
 Number     Number       Type             X           Y           Z
 ---------------------------------------------------------------------
      1          7           0        0.000000    0.000000   -0.610864
      2          8           0        0.000000    0.000000    0.534506
 ---------------------------------------------------------------------
 Rotational constants (GHZ):           0.0000000          51.5956406          51.5956406
 Basis read from rwf:  (5D, 7F)
 There are    32 symmetry adapted cartesian basis functions of A1  symmetry.
 There are     6 symmetry adapted cartesian basis functions of A2  symmetry.
 There are    16 symmetry adapted cartesian basis functions of B1  symmetry.
 There are    16 symmetry adapted cartesian basis functions of B2  symmetry.
 There are    26 symmetry adapted basis functions of A1  symmetry.
 There are     6 symmetry adapted basis functions of A2  symmetry.
 There are    14 symmetry adapted basis functions of B1  symmetry.
 There are    14 symmetry adapted basis functions of B2  symmetry.
    60 basis functions,   102 primitive gaussians,    70 cartesian basis functions
     8 alpha electrons        7 beta electrons
       nuclear repulsion energy        25.8728131306 Hartrees.
 NAtoms=    2 NActive=    2 NUniq=    2 SFac= 1.00D+00 NAtFMM=   60 NAOKFM=F Big=F
 Integral buffers will be    131072 words long.
 Raffenetti 2 integral format.
 Two-electron integral symmetry is turned on.
 One-electron integrals computed using PRISM.
 NBasis=    60 RedAO= T EigKep=  1.11D-03  NBF=    26     6    14    14
 NBsUse=    60 1.00D-06 EigRej= -1.00D+00 NBFU=    26     6    14    14
 Initial guess from the checkpoint file:  "/wrk/irikura/Gau-23472.chk"
 B after Tr=     0.000000    0.000000    0.000000
         Rot=    1.000000    0.000000    0.000000    0.000000 Ang=   0.00 deg.
 Initial guess orbital symmetries:
 Alpha Orbitals:
       Occupied  (SG) (SG) (SG) (SG) (PI) (PI) (SG) (PI)
       Virtual   (PI) (SG) (SG) (PI) (PI) (SG) (PI) (PI) (SG) (SG)
                 (DLTA) (DLTA) (PI) (PI) (SG) (DLTA) (DLTA) (PI)
                 (PI) (SG) (PI) (PI) (SG) (PI) (PI) (SG) (SG) (DLTA)
                 (DLTA) (PHI) (PHI) (PI) (PI) (PHI) (PHI) (SG)
                 (SG) (DLTA) (DLTA) (DLTA) (DLTA) (PI) (PI) (PI)
                 (PI) (DLTA) (DLTA) (SG) (PI) (PI) (SG) (SG)
 Beta  Orbitals:
       Occupied  (SG) (SG) (SG) (SG) (PI) (PI) (SG)
       Virtual   (PI) (PI) (SG) (SG) (PI) (PI) (SG) (PI) (PI) (SG)
                 (SG) (DLTA) (DLTA) (PI) (PI) (SG) (DLTA) (DLTA)
                 (PI) (PI) (SG) (PI) (SG) (PI) (PI) (PI) (SG) (SG)
                 (DLTA) (DLTA) (PHI) (PHI) (PI) (PI) (PHI) (PHI)
                 (?A) (?B) (?A) (?A) (?B) (?B) (PI) (PI) (PI) (PI)
                 (?C) (?C) (?C) (PI) (PI) (SG) (SG)
 Initial guess <Sx>= 0.0000 <Sy>= 0.0000 <Sz>= 0.5000 <S**2>= 0.7532 S= 0.5016
 Keep R1 and R2 ints in memory in symmetry-blocked form, NReq=3642070.
 Requested convergence on RMS density matrix=1.00D-08 within 128 cycles.
 Requested convergence on MAX density matrix=1.00D-06.
 Requested convergence on             energy=1.00D-06.
 No special actions if energy rises.
 SCF Done:  E(UB3LYP) =  -129.945365955     A.U. after    9 cycles
            NFock=  9  Conv=0.14D-08     -V/T= 2.0027
 <Sx>= 0.0000 <Sy>= 0.0000 <Sz>= 0.5000 <S**2>= 0.7532 S= 0.5016
 <L.S>=  0.00000000000    
 Annihilation of the first spin contaminant:
 S**2 before annihilation     0.7532,   after     0.7500
 Calling FoFJK, ICntrl=      2127 FMM=F ISym2X=1 I1Cent= 0 IOpClX= 1 NMat=1 NMatS=1 NMatT=0.
 ***** Axes restored to original set *****
 -------------------------------------------------------------------
 Center     Atomic                   Forces (Hartrees/Bohr)
 Number     Number              X              Y              Z
 -------------------------------------------------------------------
      1        7          -0.000000000   -0.000000000    0.000000434
      2        8          -0.000000000   -0.000000000   -0.000000434
 -------------------------------------------------------------------
 Cartesian Forces:  Max     0.000000434 RMS     0.000000250

 GradGradGradGradGradGradGradGradGradGradGradGradGradGradGradGradGradGrad
 Berny optimization.
 Using GEDIIS/GDIIS optimizer.
 Internal  Forces:  Max     0.000000434 RMS     0.000000434
 Search for a local minimum.
 Step number   4 out of a maximum of   20
 All quantities printed in internal units (Hartrees-Bohrs-Radians)
 Mixed Optimization -- En-DIIS/RFO-DIIS
 Update second derivatives using D2CorX and points    4
 DE= -4.90D-07 DEPred=-5.20D-07 R= 9.42D-01
 Trust test= 9.42D-01 RLast= 9.43D-04 DXMaxT set to 5.05D-01
 The second derivative matrix:
                          R1
           R1           1.03495
 ITU=  0  1
 Use linear search instead of GDIIS.
     Eigenvalues ---    1.03495
 RFO step:  Lambda= 0.00000000D+00 EMin= 1.03494615D+00
 Quartic linear search produced a step of -0.00042.
 Iteration  1 RMS(Cart)=  0.00000028 RMS(Int)=  0.00000000
 ClnCor:  largest displacement from symmetrization is 0.00D+00 for atom     0.
 Variable       Old X    -DE/DX   Delta X   Delta X   Delta X     New X
                                 (Linear)    (Quad)   (Total)
    R1        2.16443  -0.00000  -0.00000   0.00000  -0.00000   2.16443
         Item               Value     Threshold  Converged?
 Maximum Force            0.000000     0.000450     YES
 RMS     Force            0.000000     0.000300     YES
 Maximum Displacement     0.000000     0.001800     YES
 RMS     Displacement     0.000000     0.001200     YES
 Predicted change in Energy=-9.056867D-14
 Optimization completed.
    -- Stationary point found.
                           ----------------------------
                           !   Optimized Parameters   !
                           ! (Angstroms and Degrees)  !
 --------------------------                            --------------------------
 ! Name  Definition              Value          Derivative Info.                !
 --------------------------------------------------------------------------------
 ! R1    R(1,2)                  1.1454         -DE/DX =    0.0                 !
 --------------------------------------------------------------------------------
 GradGradGradGradGradGradGradGradGradGradGradGradGradGradGradGradGradGrad

                          Input orientation:                          
 ---------------------------------------------------------------------
 Center     Atomic      Atomic             Coordinates (Angstroms)
 Number     Number       Type             X           Y           Z
 ---------------------------------------------------------------------
      1          7           0        0.000000    0.000000    0.077315
      2          8           0        0.000000    0.000000    1.222685
 ---------------------------------------------------------------------
 Stoichiometry    NO(2)
 Framework group  C*V[C*(NO)]
 Deg. of freedom     1
 Full point group                 C*V     NOp   4
 Largest Abelian subgroup         C2V     NOp   4
 Largest concise Abelian subgroup C1      NOp   1
                         Standard orientation:                         
 ---------------------------------------------------------------------
 Center     Atomic      Atomic             Coordinates (Angstroms)
 Number     Number       Type             X           Y           Z
 ---------------------------------------------------------------------
      1          7           0        0.000000    0.000000   -0.610864
      2          8           0        0.000000    0.000000    0.534506
 ---------------------------------------------------------------------
 Rotational constants (GHZ):           0.0000000          51.5956406          51.5956406

 **********************************************************************

            Population analysis using the SCF Density.

 **********************************************************************

 Orbital symmetries:
 Alpha Orbitals:
       Occupied  (SG) (SG) (SG) (SG) (PI) (PI) (SG) (PI)
       Virtual   (PI) (SG) (SG) (PI) (PI) (SG) (PI) (PI) (SG) (SG)
                 (DLTA) (DLTA) (PI) (PI) (SG) (DLTA) (DLTA) (PI)
                 (PI) (SG) (PI) (PI) (SG) (PI) (PI) (SG) (SG) (DLTA)
                 (DLTA) (PHI) (PHI) (PI) (PI) (PHI) (PHI) (SG)
                 (SG) (DLTA) (DLTA) (DLTA) (DLTA) (PI) (PI) (PI)
                 (PI) (DLTA) (DLTA) (SG) (PI) (PI) (SG) (SG)
 Beta  Orbitals:
       Occupied  (SG) (SG) (SG) (SG) (PI) (PI) (SG)
       Virtual   (PI) (PI) (SG) (SG) (PI) (PI) (SG) (PI) (PI) (SG)
                 (SG) (DLTA) (DLTA) (PI) (PI) (SG) (DLTA) (DLTA)
                 (PI) (PI) (SG) (PI) (SG) (PI) (PI) (PI) (SG) (SG)
                 (DLTA) (DLTA) (PHI) (PHI) (PI) (PI) (PHI) (PHI)
                 (?A) (?B) (?A) (?A) (?B) (?B) (PI) (PI) (PI) (PI)
                 (?C) (?C) (?C) (PI) (PI) (SG) (SG)
 Unable to determine electronic state:  partially filled degenerate orbitals.
 Alpha  occ. eigenvalues --  -19.26995 -14.46141  -1.25902  -0.69599  -0.54866
 Alpha  occ. eigenvalues --   -0.52152  -0.49579  -0.22451
 Alpha virt. eigenvalues --   -0.11436   0.14404   0.21829   0.23926   0.24220
 Alpha virt. eigenvalues --    0.31305   0.37518   0.38155   0.49457   0.70399
 Alpha virt. eigenvalues --    1.04219   1.04400   1.21648   1.21741   1.45121
 Alpha virt. eigenvalues --    1.54927   1.55073   1.70622   1.72471   1.82389
 Alpha virt. eigenvalues --    1.97995   1.98559   1.99394   2.40690   2.40925
 Alpha virt. eigenvalues --    2.47856   2.74597   3.38536   3.38665   3.45374
 Alpha virt. eigenvalues --    3.45415   3.77933   3.78341   3.99618   3.99636
 Alpha virt. eigenvalues --    4.44960   4.49949   4.69638   4.69800   4.88167
 Alpha virt. eigenvalues --    4.88732   5.09118   5.09777   5.88644   5.88744
 Alpha virt. eigenvalues --    5.93470   5.93665   6.07788   6.31558   6.31700
 Alpha virt. eigenvalues --    6.44896   7.19603
  Beta  occ. eigenvalues --  -19.25911 -14.44522  -1.23822  -0.65985  -0.51201
  Beta  occ. eigenvalues --   -0.47614  -0.47147
  Beta virt. eigenvalues --   -0.09920  -0.05877   0.14750   0.22830   0.24539
  Beta virt. eigenvalues --    0.26037   0.31438   0.38416   0.39670   0.51491
  Beta virt. eigenvalues --    0.70994   1.06906   1.06919   1.22034   1.24872
  Beta virt. eigenvalues --    1.46026   1.57591   1.57603   1.73635   1.77201
  Beta virt. eigenvalues --    1.84096   1.99013   2.01013   2.01432   2.41434
  Beta virt. eigenvalues --    2.44266   2.49151   2.75954   3.40380   3.40388
  Beta virt. eigenvalues --    3.49028   3.49033   3.78260   3.81003   4.02137
  Beta virt. eigenvalues --    4.02139   4.46428   4.52473   4.71973   4.72072
  Beta virt. eigenvalues --    4.94646   4.94733   5.10377   5.14026   5.89361
  Beta virt. eigenvalues --    5.92626   5.97059   5.97165   6.09631   6.32014
  Beta virt. eigenvalues --    6.34758   6.46176   7.20380
          Condensed to atoms (all electrons):
               1          2
     1  N    6.692363   0.246209
     2  O    0.246209   7.815220
          Atomic-Atomic Spin Densities.
               1          2
     1  N    0.990859  -0.291146
     2  O   -0.291146   0.591434
 Mulliken charges and spin densities:
               1          2
     1  N    0.061428   0.699712
     2  O   -0.061428   0.300288
 Sum of Mulliken charges =  -0.00000   1.00000
 Mulliken charges and spin densities with hydrogens summed into heavy atoms:
               1          2
     1  N    0.061428   0.699712
     2  O   -0.061428   0.300288
 Electronic spatial extent (au):  <R**2>=             41.3219
 Charge=             -0.0000 electrons
 Dipole moment (field-independent basis, Debye):
    X=              0.0000    Y=              0.0000    Z=              0.1211  Tot=              0.1211
 Quadrupole moment (field-independent basis, Debye-Ang):
   XX=            -10.8369   YY=             -9.6793   ZZ=            -11.5388
   XY=              0.0000   XZ=              0.0000   YZ=              0.0000
 Traceless Quadrupole moment (field-independent basis, Debye-Ang):
   XX=             -0.1519   YY=              1.0057   ZZ=             -0.8538
   XY=              0.0000   XZ=              0.0000   YZ=              0.0000
 Octapole moment (field-independent basis, Debye-Ang**2):
  XXX=              0.0000  YYY=              0.0000  ZZZ=              2.7055  XYY=              0.0000
  XXY=              0.0000  XXZ=              0.9419  XZZ=              0.0000  YZZ=              0.0000
  YYZ=              0.4887  XYZ=              0.0000
 Hexadecapole moment (field-independent basis, Debye-Ang**3):
 XXXX=             -9.4921 YYYY=             -7.6657 ZZZZ=            -31.5665 XXXY=              0.0000
 XXXZ=              0.0000 YYYX=              0.0000 YYYZ=              0.0000 ZZZX=              0.0000
 ZZZY=              0.0000 XXYY=             -2.8596 XXZZ=             -7.2884 YYZZ=             -6.1611
 XXYZ=              0.0000 YYXZ=              0.0000 ZZXY=              0.0000
 N-N= 2.587281313056D+01 E-N=-3.577635655433D+02  KE= 1.295984234735D+02
 Symmetry A1   KE= 1.185388757548D+02
 Symmetry A2   KE= 2.719172260270D-35
 Symmetry B1   KE= 6.839978576680D+00
 Symmetry B2   KE= 4.219569142068D+00
 Symmetry A1   SP=-9.250331620483D-15
 Symmetry A2   SP=-6.650250992055D-36
 Symmetry B1   SP= 1.000000000000D+00
 Symmetry B2   SP= 9.950643214680D-15
                          Isotropic Fermi Contact Couplings
        Atom                 a.u.       MegaHertz       Gauss      10(-4) cm-1
     1  N(14)              0.10820      34.96115      12.47501      11.66178
     2  O(17)              0.09068     -54.96916     -19.61436     -18.33574
 --------------------------------------------------------
       Center         ----  Spin Dipole Couplings  ----
                      3XX-RR        3YY-RR        3ZZ-RR
 --------------------------------------------------------
     1   Atom        1.999721     -0.984618     -1.015103
     2   Atom        1.898132     -1.014183     -0.883948
 --------------------------------------------------------
                        XY            XZ            YZ
 --------------------------------------------------------
     1   Atom        0.000000      0.000000      0.000000
     2   Atom        0.000000      0.000000      0.000000
 --------------------------------------------------------


 ---------------------------------------------------------------------------------
              Anisotropic Spin Dipole Couplings in Principal Axis System
 ---------------------------------------------------------------------------------

       Atom             a.u.   MegaHertz   Gauss  10(-4) cm-1        Axes

              Baa    -1.0151   -39.150   -13.970   -13.059  0.0000  0.0000  1.0000
     1 N(14)  Bbb    -0.9846   -37.975   -13.550   -12.667 -0.0000  1.0000  0.0000
              Bcc     1.9997    77.125    27.520    25.726  1.0000  0.0000  0.0000
 
              Baa    -1.0142    73.386    26.186    24.479 -0.0000  1.0000  0.0000
     2 O(17)  Bbb    -0.8839    63.962    22.823    21.335  0.0000  0.0000  1.0000
              Bcc     1.8981  -137.347   -49.009   -45.814  1.0000  0.0000  0.0000
 

 ---------------------------------------------------------------------------------

 B after Tr=     0.000000    0.000000    0.009740
         Rot=    1.000000    0.000000    0.000000    0.000000 Ang=   0.00 deg.
 Final structure in terms of initial Z-matrix:
 N
 O,1,r
      Variables:
 r=1.14536922
 1\1\GINC-GAMBA\FOpt\UB3LYP\Gen\N1O1(2)\IRIKURA\03-Feb-2022\0\\# b3lyp/
 gen opt freq\\NO, B3LYP/pcseg-2\\0,2\N,0.,0.,0.0773153897\O,0.,0.,1.22
 26846103\\Version=ES64L-G16RevB.01\HF=-129.945366\S2=0.753163\S2-1=0.\
 S2A=0.750007\RMSD=1.394e-09\RMSF=2.504e-07\Dipole=0.,0.,0.0476411\Quad
 rupole=-0.1129114,0.7476906,-0.6347792,0.,0.,0.\PG=C*V [C*(N1O1)]\\@


 Make no judgements where you have no compassion.
                               -- Anne McCaffrey
 Job cpu time:       0 days  0 hours  0 minutes 16.0 seconds.
 Elapsed time:       0 days  0 hours  0 minutes 15.6 seconds.
 File lengths (MBytes):  RWF=      6 Int=      0 D2E=      0 Chk=      1 Scr=      1
 Normal termination of Gaussian 16 at Thu Feb  3 12:21:37 2022.
 Link1:  Proceeding to internal job step number  2.
 ------------------------------------------------------------------
 #N Geom=AllCheck Guess=TCheck SCRF=Check GenChk UB3LYP/ChkBas Freq
 ------------------------------------------------------------------
 1/10=4,29=7,30=1,38=1,40=1/1,3;
 2/12=2,40=1/2;
 3/5=7,6=2,11=2,14=-4,25=1,30=1,67=1,70=2,71=2,74=-5,82=7,116=2,140=1/1,2,3;
 4/5=101/1;
 5/5=2,38=6,98=1/2;
 8/6=4,10=90,11=11/1;
 11/6=1,8=1,9=11,15=111,16=1/1,2,10;
 10/6=1/2;
 6/7=2,8=2,9=2,10=2,28=1/1;
 7/8=1,10=1,25=1/1,2,3,16;
 1/10=4,30=1/3;
 99//99;
 Structure from the checkpoint file:  "/wrk/irikura/Gau-23472.chk"
 -----------------
 NO, B3LYP/pcseg-2
 -----------------
 Charge =  0 Multiplicity = 2
 Redundant internal coordinates found in file.  (old form).
 N,0,0.,0.,0.0773153897
 O,0,0.,0.,1.2226846103
 Recover connectivity data from disk.

 GradGradGradGradGradGradGradGradGradGradGradGradGradGradGradGradGradGrad
 Berny optimization.
 Initialization pass.
                           ----------------------------
                           !    Initial Parameters    !
                           ! (Angstroms and Degrees)  !
 --------------------------                            --------------------------
 ! Name  Definition              Value          Derivative Info.                !
 --------------------------------------------------------------------------------
 ! R1    R(1,2)                  1.1454         calculate D2E/DX2 analytically  !
 --------------------------------------------------------------------------------
 Trust Radius=3.00D-01 FncErr=1.00D-07 GrdErr=1.00D-07 EigMax=2.50D+02 EigMin=1.00D-04
 Number of steps in this run=      2 maximum allowed number of steps=      2.
 GradGradGradGradGradGradGradGradGradGradGradGradGradGradGradGradGradGrad

                          Input orientation:                          
 ---------------------------------------------------------------------
 Center     Atomic      Atomic             Coordinates (Angstroms)
 Number     Number       Type             X           Y           Z
 ---------------------------------------------------------------------
      1          7           0        0.000000    0.000000    0.077315
      2          8           0        0.000000    0.000000    1.222685
 ---------------------------------------------------------------------
 Stoichiometry    NO(2)
 Framework group  C*V[C*(NO)]
 Deg. of freedom     1
 Full point group                 C*V     NOp   4
 Largest Abelian subgroup         C2V     NOp   4
 Largest concise Abelian subgroup C1      NOp   1
                         Standard orientation:                         
 ---------------------------------------------------------------------
 Center     Atomic      Atomic             Coordinates (Angstroms)
 Number     Number       Type             X           Y           Z
 ---------------------------------------------------------------------
      1          7           0        0.000000    0.000000   -0.610864
      2          8           0        0.000000    0.000000    0.534506
 ---------------------------------------------------------------------
 Rotational constants (GHZ):           0.0000000          51.5956406          51.5956406
 Basis read from chk: "/wrk/irikura/Gau-23472.chk" (5D, 7F)
 There are    32 symmetry adapted cartesian basis functions of A1  symmetry.
 There are     6 symmetry adapted cartesian basis functions of A2  symmetry.
 There are    16 symmetry adapted cartesian basis functions of B1  symmetry.
 There are    16 symmetry adapted cartesian basis functions of B2  symmetry.
 There are    26 symmetry adapted basis functions of A1  symmetry.
 There are     6 symmetry adapted basis functions of A2  symmetry.
 There are    14 symmetry adapted basis functions of B1  symmetry.
 There are    14 symmetry adapted basis functions of B2  symmetry.
    60 basis functions,   102 primitive gaussians,    70 cartesian basis functions
     8 alpha electrons        7 beta electrons
       nuclear repulsion energy        25.8728131306 Hartrees.
 NAtoms=    2 NActive=    2 NUniq=    2 SFac= 1.00D+00 NAtFMM=   60 NAOKFM=F Big=F
 Integral buffers will be    131072 words long.
 Raffenetti 2 integral format.
 Two-electron integral symmetry is turned on.
 One-electron integrals computed using PRISM.
 NBasis=    60 RedAO= T EigKep=  1.11D-03  NBF=    26     6    14    14
 NBsUse=    60 1.00D-06 EigRej= -1.00D+00 NBFU=    26     6    14    14
 Initial guess from the checkpoint file:  "/wrk/irikura/Gau-23472.chk"
 B after Tr=     0.000000    0.000000    0.000000
         Rot=    1.000000    0.000000    0.000000    0.000000 Ang=   0.00 deg.
 Initial guess orbital symmetries:
 Alpha Orbitals:
       Occupied  (SG) (SG) (SG) (SG) (PI) (PI) (SG) (PI)
       Virtual   (PI) (SG) (SG) (PI) (PI) (SG) (PI) (PI) (SG) (SG)
                 (DLTA) (DLTA) (PI) (PI) (SG) (DLTA) (DLTA) (PI)
                 (PI) (SG) (PI) (PI) (SG) (PI) (PI) (SG) (SG) (DLTA)
                 (DLTA) (PHI) (PHI) (PI) (PI) (PHI) (PHI) (SG)
                 (SG) (DLTA) (DLTA) (DLTA) (DLTA) (PI) (PI) (PI)
                 (PI) (DLTA) (DLTA) (SG) (PI) (PI) (SG) (SG)
 Beta  Orbitals:
       Occupied  (SG) (SG) (SG) (SG) (PI) (PI) (SG)
       Virtual   (PI) (PI) (SG) (SG) (PI) (PI) (SG) (PI) (PI) (SG)
                 (SG) (DLTA) (DLTA) (PI) (PI) (SG) (DLTA) (DLTA)
                 (PI) (PI) (SG) (PI) (SG) (PI) (PI) (PI) (SG) (SG)
                 (DLTA) (DLTA) (PHI) (PHI) (PI) (PI) (PHI) (PHI)
                 (?A) (?B) (?A) (?A) (?B) (?B) (PI) (PI) (PI) (PI)
                 (?C) (?C) (?C) (PI) (PI) (SG) (SG)
 Initial guess <Sx>= 0.0000 <Sy>= 0.0000 <Sz>= 0.5000 <S**2>= 0.7532 S= 0.5016
 Keep R1 and R2 ints in memory in symmetry-blocked form, NReq=3642070.
 Requested convergence on RMS density matrix=1.00D-08 within 128 cycles.
 Requested convergence on MAX density matrix=1.00D-06.
 Requested convergence on             energy=1.00D-06.
 No special actions if energy rises.
 SCF Done:  E(UB3LYP) =  -129.945365955     A.U. after    1 cycles
            NFock=  1  Conv=0.40D-09     -V/T= 2.0027
 <Sx>= 0.0000 <Sy>= 0.0000 <Sz>= 0.5000 <S**2>= 0.7532 S= 0.5016
 <L.S>=  0.00000000000    
 Annihilation of the first spin contaminant:
 S**2 before annihilation     0.7532,   after     0.7500
 DoSCS=F DFT=T ScalE2(SS,OS)=  1.000000  1.000000
 Range of M.O.s used for correlation:     1    60
 NBasis=    60 NAE=     8 NBE=     7 NFC=     0 NFV=     0
 NROrb=     60 NOA=     8 NOB=     7 NVA=    52 NVB=    53

 **** Warning!!: The largest alpha MO coefficient is  0.13307546D+02


 **** Warning!!: The largest beta MO coefficient is  0.13356213D+02

 Symmetrizing basis deriv contribution to polar:
 IMax=3 JMax=2 DiffMx= 0.00D+00
 G2DrvN: will do     3 centers at a time, making    1 passes.
 Calling FoFCou, ICntrl=  3107 FMM=F I1Cent=   0 AccDes= 0.00D+00.
 End of G2Drv F.D. properties file   721 does not exist.
 End of G2Drv F.D. properties file   722 does not exist.
 End of G2Drv F.D. properties file   788 does not exist.
          IDoAtm=11
          Differentiating once with respect to electric field.
                with respect to dipole field.
          Differentiating once with respect to nuclear coordinates.
 Keep R1 and R2 ints in memory in symmetry-blocked form, NReq=3643250.
          There are     9 degrees of freedom in the 1st order CPHF.  IDoFFX=6 NUNeed=     3.
      6 vectors produced by pass  0 Test12= 8.74D-15 1.11D-08 XBig12= 2.43D+01 2.61D+00.
 AX will form     6 AO Fock derivatives at one time.
      6 vectors produced by pass  1 Test12= 8.74D-15 1.11D-08 XBig12= 2.17D+01 2.11D+00.
      6 vectors produced by pass  2 Test12= 8.74D-15 1.11D-08 XBig12= 5.47D-01 3.53D-01.
      6 vectors produced by pass  3 Test12= 8.74D-15 1.11D-08 XBig12= 2.97D-02 7.57D-02.
      6 vectors produced by pass  4 Test12= 8.74D-15 1.11D-08 XBig12= 6.93D-04 1.11D-02.
      6 vectors produced by pass  5 Test12= 8.74D-15 1.11D-08 XBig12= 1.49D-05 8.79D-04.
      6 vectors produced by pass  6 Test12= 8.74D-15 1.11D-08 XBig12= 1.44D-07 1.58D-04.
      4 vectors produced by pass  7 Test12= 8.74D-15 1.11D-08 XBig12= 7.76D-10 8.18D-06.
      2 vectors produced by pass  8 Test12= 8.74D-15 1.11D-08 XBig12= 3.07D-12 6.93D-07.
      1 vectors produced by pass  9 Test12= 8.74D-15 1.11D-08 XBig12= 1.59D-14 3.74D-08.
 InvSVY:  IOpt=1 It=  1 EMax= 3.33D-16
 Solved reduced A of dimension    49 with     6 vectors.
 Isotropic polarizability for W=    0.000000        9.50 Bohr**3.
 End of Minotr F.D. properties file   721 does not exist.
 End of Minotr F.D. properties file   722 does not exist.
 End of Minotr F.D. properties file   788 does not exist.

 **********************************************************************

            Population analysis using the SCF Density.

 **********************************************************************

 Orbital symmetries:
 Alpha Orbitals:
       Occupied  (SG) (SG) (SG) (SG) (PI) (PI) (SG) (PI)
       Virtual   (PI) (SG) (SG) (PI) (PI) (SG) (PI) (PI) (SG) (SG)
                 (DLTA) (DLTA) (PI) (PI) (SG) (DLTA) (DLTA) (PI)
                 (PI) (SG) (PI) (PI) (SG) (PI) (PI) (SG) (SG) (DLTA)
                 (DLTA) (PHI) (PHI) (PI) (PI) (PHI) (PHI) (SG)
                 (SG) (DLTA) (DLTA) (DLTA) (DLTA) (PI) (PI) (PI)
                 (PI) (DLTA) (DLTA) (SG) (PI) (PI) (SG) (SG)
 Beta  Orbitals:
       Occupied  (SG) (SG) (SG) (SG) (PI) (PI) (SG)
       Virtual   (PI) (PI) (SG) (SG) (PI) (PI) (SG) (PI) (PI) (SG)
                 (SG) (DLTA) (DLTA) (PI) (PI) (SG) (DLTA) (DLTA)
                 (PI) (PI) (SG) (PI) (SG) (PI) (PI) (PI) (SG) (SG)
                 (DLTA) (DLTA) (PHI) (PHI) (PI) (PI) (PHI) (PHI)
                 (?A) (?B) (?A) (?A) (?B) (?B) (PI) (PI) (PI) (PI)
                 (?C) (?C) (?C) (PI) (PI) (SG) (SG)
 Unable to determine electronic state:  partially filled degenerate orbitals.
 Alpha  occ. eigenvalues --  -19.26995 -14.46141  -1.25902  -0.69599  -0.54866
 Alpha  occ. eigenvalues --   -0.52152  -0.49579  -0.22451
 Alpha virt. eigenvalues --   -0.11436   0.14404   0.21829   0.23926   0.24220
 Alpha virt. eigenvalues --    0.31305   0.37518   0.38155   0.49457   0.70399
 Alpha virt. eigenvalues --    1.04219   1.04400   1.21648   1.21741   1.45121
 Alpha virt. eigenvalues --    1.54927   1.55073   1.70622   1.72471   1.82389
 Alpha virt. eigenvalues --    1.97995   1.98559   1.99394   2.40690   2.40925
 Alpha virt. eigenvalues --    2.47856   2.74597   3.38536   3.38665   3.45374
 Alpha virt. eigenvalues --    3.45415   3.77933   3.78341   3.99618   3.99636
 Alpha virt. eigenvalues --    4.44960   4.49949   4.69638   4.69800   4.88167
 Alpha virt. eigenvalues --    4.88732   5.09118   5.09777   5.88644   5.88744
 Alpha virt. eigenvalues --    5.93470   5.93665   6.07788   6.31558   6.31700
 Alpha virt. eigenvalues --    6.44896   7.19603
  Beta  occ. eigenvalues --  -19.25911 -14.44522  -1.23822  -0.65985  -0.51201
  Beta  occ. eigenvalues --   -0.47614  -0.47147
  Beta virt. eigenvalues --   -0.09920  -0.05877   0.14750   0.22830   0.24539
  Beta virt. eigenvalues --    0.26037   0.31438   0.38416   0.39670   0.51491
  Beta virt. eigenvalues --    0.70994   1.06906   1.06919   1.22034   1.24872
  Beta virt. eigenvalues --    1.46026   1.57591   1.57603   1.73635   1.77201
  Beta virt. eigenvalues --    1.84096   1.99013   2.01013   2.01432   2.41434
  Beta virt. eigenvalues --    2.44266   2.49151   2.75954   3.40380   3.40388
  Beta virt. eigenvalues --    3.49028   3.49033   3.78260   3.81003   4.02137
  Beta virt. eigenvalues --    4.02139   4.46428   4.52473   4.71973   4.72072
  Beta virt. eigenvalues --    4.94646   4.94733   5.10377   5.14026   5.89361
  Beta virt. eigenvalues --    5.92626   5.97059   5.97165   6.09631   6.32014
  Beta virt. eigenvalues --    6.34758   6.46176   7.20380
          Condensed to atoms (all electrons):
               1          2
     1  N    6.692363   0.246209
     2  O    0.246209   7.815220
          Atomic-Atomic Spin Densities.
               1          2
     1  N    0.990859  -0.291146
     2  O   -0.291146   0.591434
 Mulliken charges and spin densities:
               1          2
     1  N    0.061429   0.699712
     2  O   -0.061429   0.300288
 Sum of Mulliken charges =  -0.00000   1.00000
 Mulliken charges and spin densities with hydrogens summed into heavy atoms:
               1          2
     1  N    0.061429   0.699712
     2  O   -0.061429   0.300288
 APT charges:
               1
     1  N    0.175935
     2  O   -0.175935
 Sum of APT charges =  -0.00000
 APT charges with hydrogens summed into heavy atoms:
               1
     1  N    0.175935
     2  O   -0.175935
 Electronic spatial extent (au):  <R**2>=             41.3219
 Charge=             -0.0000 electrons
 Dipole moment (field-independent basis, Debye):
    X=              0.0000    Y=              0.0000    Z=              0.1211  Tot=              0.1211
 Quadrupole moment (field-independent basis, Debye-Ang):
   XX=            -10.8369   YY=             -9.6793   ZZ=            -11.5388
   XY=              0.0000   XZ=              0.0000   YZ=              0.0000
 Traceless Quadrupole moment (field-independent basis, Debye-Ang):
   XX=             -0.1519   YY=              1.0057   ZZ=             -0.8538
   XY=              0.0000   XZ=              0.0000   YZ=              0.0000
 Octapole moment (field-independent basis, Debye-Ang**2):
  XXX=              0.0000  YYY=              0.0000  ZZZ=              2.7055  XYY=              0.0000
  XXY=              0.0000  XXZ=              0.9419  XZZ=              0.0000  YZZ=              0.0000
  YYZ=              0.4887  XYZ=              0.0000
 Hexadecapole moment (field-independent basis, Debye-Ang**3):
 XXXX=             -9.4921 YYYY=             -7.6657 ZZZZ=            -31.5665 XXXY=              0.0000
 XXXZ=              0.0000 YYYX=              0.0000 YYYZ=              0.0000 ZZZX=              0.0000
 ZZZY=              0.0000 XXYY=             -2.8596 XXZZ=             -7.2884 YYZZ=             -6.1611
 XXYZ=              0.0000 YYXZ=              0.0000 ZZXY=              0.0000
 N-N= 2.587281313056D+01 E-N=-3.577635657044D+02  KE= 1.295984235506D+02
 Symmetry A1   KE= 1.185388757721D+02
 Symmetry A2   KE= 2.719172109228D-35
 Symmetry B1   KE= 6.839978593511D+00
 Symmetry B2   KE= 4.219569185064D+00
 Symmetry A1   SP= 3.383296924954D-15
 Symmetry A2   SP=-6.650250819921D-36
 Symmetry B1   SP= 1.000000000000D+00
 Symmetry B2   SP=-3.976311467591D-17
  Exact polarizability:   7.388  -0.000   7.054  -0.000   0.000  14.070
 Approx polarizability:   8.560  -0.000   9.599  -0.000  -0.000  24.087
                          Isotropic Fermi Contact Couplings
        Atom                 a.u.       MegaHertz       Gauss      10(-4) cm-1
     1  N(14)              0.10820      34.96115      12.47501      11.66178
     2  O(17)              0.09068     -54.96917     -19.61437     -18.33574
 --------------------------------------------------------
       Center         ----  Spin Dipole Couplings  ----
                      3XX-RR        3YY-RR        3ZZ-RR
 --------------------------------------------------------
     1   Atom        1.999721     -0.984618     -1.015103
     2   Atom        1.898132     -1.014183     -0.883948
 --------------------------------------------------------
                        XY            XZ            YZ
 --------------------------------------------------------
     1   Atom        0.000000      0.000000      0.000000
     2   Atom        0.000000      0.000000      0.000000
 --------------------------------------------------------


 ---------------------------------------------------------------------------------
              Anisotropic Spin Dipole Couplings in Principal Axis System
 ---------------------------------------------------------------------------------

       Atom             a.u.   MegaHertz   Gauss  10(-4) cm-1        Axes

              Baa    -1.0151   -39.150   -13.970   -13.059  0.0000  0.0000  1.0000
     1 N(14)  Bbb    -0.9846   -37.975   -13.550   -12.667 -0.0000  1.0000  0.0000
              Bcc     1.9997    77.125    27.520    25.726  1.0000  0.0000  0.0000
 
              Baa    -1.0142    73.386    26.186    24.479 -0.0000  1.0000  0.0000
     2 O(17)  Bbb    -0.8839    63.962    22.823    21.335  0.0000  0.0000  1.0000
              Bcc     1.8981  -137.347   -49.009   -45.814  1.0000  0.0000  0.0000
 

 ---------------------------------------------------------------------------------

 Calling FoFJK, ICntrl=    100127 FMM=F ISym2X=1 I1Cent= 0 IOpClX= 1 NMat=1 NMatS=1 NMatT=0.
 Full mass-weighted force constant matrix:
 Low frequencies ---   -0.0014   -0.0006    0.0007    3.8564    4.3524 1972.8664
 Diagonal vibrational polarizability:
        0.0000000       0.0000000       0.2951965
 Harmonic frequencies (cm**-1), IR intensities (KM/Mole), Raman scattering
 activities (A**4/AMU), depolarization ratios for plane and unpolarized
 incident light, reduced masses (AMU), force constants (mDyne/A),
 and normal coordinates:
                      1
                     SG
 Frequencies --   1972.8664
 Red. masses --     14.8673
 Frc consts  --     34.0940
 IR Inten    --     42.6946
  Atom  AN      X      Y      Z
     1   7     0.00   0.00   0.75
     2   8     0.00   0.00  -0.66

 -------------------
 - Thermochemistry -
 -------------------
 Temperature   298.150 Kelvin.  Pressure   1.00000 Atm.
 Atom     1 has atomic number  7 and mass  14.00307
 Atom     2 has atomic number  8 and mass  15.99491
 Molecular mass:    29.99799 amu.
 Principal axes and moments of inertia in atomic units:
                           1         2         3
     Eigenvalues --     0.00000  34.97856  34.97856
           X            0.00000  -0.00000   1.00000
           Y            0.00000   1.00000   0.00000
           Z            1.00000   0.00000   0.00000
 This molecule is a prolate symmetric top.
 Rotational symmetry number  1.
 Rotational temperature (Kelvin)      2.47620
 Rotational constant (GHZ):          51.595641
 Zero-point vibrational energy      11800.4 (Joules/Mol)
                                    2.82035 (Kcal/Mol)
 Vibrational temperatures:   2838.51
          (Kelvin)
 
 Zero-point correction=                           0.004495 (Hartree/Particle)
 Thermal correction to Energy=                    0.006856
 Thermal correction to Enthalpy=                  0.007800
 Thermal correction to Gibbs Free Energy=        -0.015489
 Sum of electronic and zero-point Energies=           -129.940871
 Sum of electronic and thermal Energies=              -129.938510
 Sum of electronic and thermal Enthalpies=            -129.937566
 Sum of electronic and thermal Free Energies=         -129.960855
 
                     E (Thermal)             CV                S
                      KCal/Mol        Cal/Mol-Kelvin    Cal/Mol-Kelvin
 Total                    4.302              4.981             49.016
 Electronic               0.000              0.000              1.377
 Translational            0.889              2.981             36.129
 Rotational               0.592              1.987             11.508
 Vibrational              2.821              0.013              0.002
                       Q            Log10(Q)             Ln(Q)
 Total Bot       0.133189D+08          7.124469         16.404696
 Total V=0       0.155526D+10          9.191803         21.164908
 Vib (Bot)       0.856442D-02         -2.067302         -4.760139
 Vib (V=0)       0.100007D+01          0.000032          0.000073
 Electronic      0.200000D+01          0.301030          0.693147
 Translational   0.645791D+07          6.810092         15.680817
 Rotational      0.120406D+03          2.080649          4.790871
 ***** Axes restored to original set *****
 -------------------------------------------------------------------
 Center     Atomic                   Forces (Hartrees/Bohr)
 Number     Number              X              Y              Z
 -------------------------------------------------------------------
      1        7          -0.000000000   -0.000000000    0.000000427
      2        8          -0.000000000   -0.000000000   -0.000000427
 -------------------------------------------------------------------
 Cartesian Forces:  Max     0.000000427 RMS     0.000000247
 FormGI is forming the generalized inverse of G from B-inverse, IUseBI=4.

 GradGradGradGradGradGradGradGradGradGradGradGradGradGradGradGradGradGrad
 Berny optimization.
 Internal  Forces:  Max     0.000000427 RMS     0.000000427
 Search for a local minimum.
 Step number   1 out of a maximum of    2
 All quantities printed in internal units (Hartrees-Bohrs-Radians)
 Second derivative matrix not updated -- analytic derivatives used.
 The second derivative matrix:
                          R1
           R1           1.09977
 ITU=  0
     Eigenvalues ---    1.09977
 Angle between quadratic step and forces=  90.00 degrees.
 Linear search not attempted -- first point.
 Iteration  1 RMS(Cart)=  0.00000027 RMS(Int)=  0.00000000
 ClnCor:  largest displacement from symmetrization is 0.00D+00 for atom     0.
 Variable       Old X    -DE/DX   Delta X   Delta X   Delta X     New X
                                 (Linear)    (Quad)   (Total)
    R1        2.16443  -0.00000   0.00000  -0.00000  -0.00000   2.16443
         Item               Value     Threshold  Converged?
 Maximum Force            0.000000     0.000450     YES
 RMS     Force            0.000000     0.000300     YES
 Maximum Displacement     0.000000     0.001800     YES
 RMS     Displacement     0.000000     0.001200     YES
 Predicted change in Energy=-8.292043D-14
 Optimization completed.
    -- Stationary point found.
                           ----------------------------
                           !   Optimized Parameters   !
                           ! (Angstroms and Degrees)  !
 --------------------------                            --------------------------
 ! Name  Definition              Value          Derivative Info.                !
 --------------------------------------------------------------------------------
 ! R1    R(1,2)                  1.1454         -DE/DX =    0.0                 !
 --------------------------------------------------------------------------------
 GradGradGradGradGradGradGradGradGradGradGradGradGradGradGradGradGradGrad


 ----------------------------------------------------------------------

 Electric dipole moment (input orientation):
 (Debye = 10**-18 statcoulomb cm , SI units = C m)
                  (au)            (Debye)         (10**-30 SI)
   Tot        0.476410D-01      0.121091D+00      0.403917D+00
   x          0.000000D+00      0.000000D+00      0.000000D+00
   y          0.000000D+00      0.000000D+00      0.000000D+00
   z          0.476410D-01      0.121091D+00      0.403917D+00

 Dipole polarizability, Alpha (input orientation).
 (esu units = cm**3 , SI units = C**2 m**2 J**-1)
 Alpha(0;0):
               (au)            (10**-24 esu)      (10**-40 SI)
   iso        0.950396D+01      0.140834D+01      0.156699D+01
   aniso      0.685445D+01      0.101572D+01      0.113015D+01
   xx         0.738829D+01      0.109483D+01      0.121817D+01
   yx         0.000000D+00      0.000000D+00      0.000000D+00
   yy         0.705407D+01      0.104531D+01      0.116306D+01
   zx         0.000000D+00      0.000000D+00      0.000000D+00
   zy         0.000000D+00      0.000000D+00      0.000000D+00
   zz         0.140695D+02      0.208489D+01      0.231975D+01

 ----------------------------------------------------------------------

 Dipole orientation:
     7          0.00000000          0.00000000          0.14610491
     8          0.00000000          0.00000000          2.31053905

 Electric dipole moment (dipole orientation):
 (Debye = 10**-18 statcoulomb cm , SI units = C m)
                  (au)            (Debye)         (10**-30 SI)
   Tot        0.476410D-01      0.121091D+00      0.403917D+00
   x          0.000000D+00      0.000000D+00      0.000000D+00
   y          0.000000D+00      0.000000D+00      0.000000D+00
   z          0.476410D-01      0.121091D+00      0.403917D+00

 Dipole polarizability, Alpha (dipole orientation).
 (esu units = cm**3 , SI units = C**2 m**2 J**-1)
 Alpha(0;0):
               (au)            (10**-24 esu)      (10**-40 SI)
   iso        0.950396D+01      0.140834D+01      0.156699D+01
   aniso      0.685445D+01      0.101572D+01      0.113015D+01
   xx         0.738829D+01      0.109483D+01      0.121817D+01
   yx         0.000000D+00      0.000000D+00      0.000000D+00
   yy         0.705407D+01      0.104531D+01      0.116306D+01
   zx         0.000000D+00      0.000000D+00      0.000000D+00
   zy         0.000000D+00      0.000000D+00      0.000000D+00
   zz         0.140695D+02      0.208489D+01      0.231975D+01

 ----------------------------------------------------------------------
 1\1\GINC-GAMBA\Freq\UB3LYP\Gen\N1O1(2)\IRIKURA\03-Feb-2022\0\\#N Geom=
 AllCheck Guess=TCheck SCRF=Check GenChk UB3LYP/ChkBas Freq\\NO, B3LYP/
 pcseg-2\\0,2\N,0.,0.,0.0773153897\O,0.,0.,1.2226846103\\Version=ES64L-
 G16RevB.01\HF=-129.945366\S2=0.753163\S2-1=0.\S2A=0.750007\RMSD=4.031e
 -10\RMSF=2.466e-07\ZeroPoint=0.0044945\Thermal=0.0068556\Dipole=0.,0.,
 0.047641\DipoleDeriv=-0.0220158,0.,0.,0.,-0.0220105,0.,0.,0.,0.571831,
 0.0220158,0.,0.,0.,0.0220105,0.,0.,0.,-0.571831\Polar=7.3882947,0.,7.0
 540746,0.,0.,14.0695223\Quadrupole=-0.1129114,0.7476906,-0.6347792,0.,
 0.,0.\PG=C*V [C*(N1O1)]\NImag=0\\0.00000420,0.,0.00000535,0.,0.,1.0997
 6524,-0.00000420,0.,0.,0.00000420,0.,-0.00000535,0.,0.,0.00000535,0.,0
 .,-1.09976524,0.,0.,1.09976524\\0.,0.,-0.00000043,0.,0.,0.00000043\\\@


 EVERYBODY NEEDS BEAUTY AS WELL AS BREAD, PLACES TO PLAY IN AND PRAY IN,
 WHERE NATURE MAY HEAL AND CHEER AND GIVE STRENGTH TO BODY AND SOUL ALIKE.

                                    -- JOHN MUIR
 Job cpu time:       0 days  0 hours  0 minutes 12.6 seconds.
 Elapsed time:       0 days  0 hours  0 minutes 12.4 seconds.
 File lengths (MBytes):  RWF=      6 Int=      0 D2E=      0 Chk=      2 Scr=      1
 Normal termination of Gaussian 16 at Thu Feb  3 12:21:49 2022.
