 Entering Gaussian System, Link 0=g16
 AtFile(1): pcseg2.gbs
            -H     0
            S   4   1.00
                  0.754732D+02           0.427821D-02
                  0.113575D+02           0.328672D-01
                  0.260081D+01           0.159578D+00
                  0.735503D+00           0.500000D+00
            S   1   1.00
                  0.231761D+00           1.0000000
            S   1   1.00
                  0.741675D-01           1.0000000
            P   1   1.00
                  0.160000D+01           1.0000000
            P   1   1.00
                  0.450000D+00           1.0000000
            D   1   1.00
                  0.125000D+01           1.0000000
            ****
            -C     0
            S   7   1.00
                  0.731999D+04           0.695369D-03
                  0.109818D+04           0.537138D-02
                  0.250014D+03           0.274734D-01
                  0.707586D+02           0.105078D+00
                  0.228595D+02           0.291262D+00
                  0.803936D+01           0.500000D+00
                  0.289309D+01           0.362224D+00
            S   2   1.00
                  0.521640D+01          -0.957844D-01
                  0.556124D+00           0.500000D+00
            S   1   1.00
                  0.228813D+00           1.0000000
            S   1   1.00
                  0.936338D-01           1.0000000
            P   4   1.00
                  0.339855D+02           0.818395D-02
                  0.772957D+01           0.586921D-01
                  0.224954D+01           0.222514D+00
                  0.767681D+00           0.500000D+00
            P   1   1.00
                  0.263283D+00           1.0000000
            P   1   1.00
                  0.848744D-01           1.0000000
            D   1   1.00
                  0.140000D+01           1.0000000
            D   1   1.00
                  0.450000D+00           1.0000000
            F   1   1.00
                  0.950000D+00           1.0000000
            ****
            -O     0
            S   7   1.00
                  0.135887D+05           0.665492D-03
                  0.203847D+04           0.514222D-02
                  0.464041D+03           0.263472D-01
                  0.131339D+03           0.101500D+00
                  0.425340D+02           0.285877D+00
                  0.150429D+02           0.500000D+00
                  0.546616D+01           0.368211D+00
            S   2   1.00
                  0.100915D+02          -0.100084D+00
                  0.110429D+01           0.500000D+00
            S   1   1.00
                  0.448082D+00           1.0000000
            S   1   1.00
                  0.175325D+00           1.0000000
            P   4   1.00
                  0.608220D+02           0.908253D-02
                  0.140332D+02           0.645878D-01
                  0.418244D+01           0.241502D+00
                  0.142490D+01           0.500000D+00
            P   1   1.00
                  0.478741D+00           1.0000000
            P   1   1.00
                  0.146257D+00           1.0000000
            D   1   1.00
                  0.220000D+01           1.0000000
            D   1   1.00
                  0.650000D+00           1.0000000
            F   1   1.00
                  0.110000D+01           1.0000000
            ****
            -N     0
            S   7   1.00
                  0.101643D+05           0.682757D-03
                  0.152481D+04           0.527488D-02
                  0.347119D+03           0.270037D-01
                  0.982389D+02           0.103673D+00
                  0.317799D+02           0.289575D+00
                  0.112240D+02           0.500000D+00
                  0.406611D+01           0.364621D+00
            S   2   1.00
                  0.747898D+01          -0.975681D-01
                  0.805040D+00           0.500000D+00
            S   1   1.00
                  0.324626D+00           1.0000000
            S   1   1.00
                  0.128132D+00           1.0000000
            P   4   1.00
                  0.482704D+02           0.829547D-02
                  0.110815D+02           0.596223D-01
                  0.326643D+01           0.227889D+00
                  0.111680D+01           0.500000D+00
            P   1   1.00
                  0.382049D+00           1.0000000
            P   1   1.00
                  0.121222D+00           1.0000000
            D   1   1.00
                  0.180000D+01           1.0000000
            D   1   1.00
                  0.550000D+00           1.0000000
            F   1   1.00
                  0.102000D+01           1.0000000
            ****
            -F     0
            S   7   1.00
                  0.174507D+05           0.655972D-03
                  0.261768D+04           0.506944D-02
                  0.595857D+03           0.259899D-01
                  0.168651D+03           0.100353D+00
                  0.546654D+02           0.284095D+00
                  0.193717D+02           0.500000D+00
                  0.706202D+01           0.370721D+00
            S   2   1.00
                  0.131197D+02          -0.101997D+00
                  0.145046D+01           0.500000D+00
            S   1   1.00
                  0.588255D+00           1.0000000
            S   1   1.00
                  0.227960D+00           1.0000000
            P   4   1.00
                  0.779407D+02           0.931135D-02
                  0.180425D+02           0.663964D-01
                  0.542342D+01           0.246386D+00
                  0.184876D+01           0.500000D+00
            P   1   1.00
                  0.617455D+00           1.0000000
            P   1   1.00
                  0.185496D+00           1.0000000
            D   1   1.00
                  0.280000D+01           1.0000000
            D   1   1.00
                  0.800000D+00           1.0000000
            F   1   1.00
                  0.120000D+01           1.0000000
            ****
            -Cl     0
            S   8   1.00
                  0.154272D+06           0.222473D-03
                  0.231232D+05           0.172590D-02
                  0.526257D+04           0.899286D-02
                  0.148995D+04           0.367724D-01
                  0.485417D+03           0.121446D+00
                  0.174634D+03           0.304148D+00
                  0.672393D+02           0.500000D+00
                  0.265780D+02           0.360252D+00
            S   3   1.00
                  0.131826D+03          -0.531330D-01
                  0.400703D+02          -0.233346D+00
                  0.789448D+01           0.500000D+00
            S   2   1.00
                  0.427711D+01           0.500000D+00
                  0.196233D+01           0.370517D+00
            S   1   1.00
                  0.520793D+00           1.0000000
            S   1   1.00
                  0.181633D+00           1.0000000
            P   7   1.00
                  0.124440D+04           0.988206D-03
                  0.295109D+03           0.829674D-02
                  0.947224D+02           0.430906D-01
                  0.352588D+02           0.148443D+00
                  0.144211D+02           0.344744D+00
                  0.610371D+01           0.500000D+00
                  0.258886D+01           0.348278D+00
            P   2   1.00
                  0.109447D+02          -0.196768D-01
                  0.104413D+01           0.500000D+00
            P   1   1.00
                  0.376184D+00           1.0000000
            P   1   1.00
                  0.120613D+00           1.0000000
            D   1   1.00
                  0.231000D+01           1.0000000
            D   1   1.00
                  0.520000D+00           1.0000000
            F   1   1.00
                  0.720000D+00           1.0000000
            ****
            -S     0
            S   8   1.00
                  0.134700D+06           0.226231D-03
                  0.201904D+05           0.175488D-02
                  0.459528D+04           0.914190D-02
                  0.130109D+04           0.373551D-01
                  0.423902D+03           0.123121D+00
                  0.152485D+03           0.306801D+00
                  0.586925D+02           0.500000D+00
                  0.231461D+02           0.354358D+00
            S   3   1.00
                  0.116327D+03          -0.491772D-01
                  0.352841D+02          -0.215962D+00
                  0.677831D+01           0.500000D+00
            S   2   1.00
                  0.360404D+01           0.500000D+00
                  0.164871D+01           0.366278D+00
            S   1   1.00
                  0.421821D+00           1.0000000
            S   1   1.00
                  0.147554D+00           1.0000000
            P   7   1.00
                  0.104863D+04           0.105273D-02
                  0.248717D+03           0.879338D-02
                  0.797887D+02           0.453358D-01
                  0.296023D+02           0.154476D+00
                  0.120627D+02           0.352366D+00
                  0.507628D+01           0.500000D+00
                  0.213375D+01           0.346429D+00
            P   2   1.00
                  0.928958D+01          -0.185932D-01
                  0.837819D+00           0.500000D+00
            P   1   1.00
                  0.301495D+00           1.0000000
            P   1   1.00
                  0.974740D-01           1.0000000
            D   1   1.00
                  0.210000D+01           1.0000000
            D   1   1.00
                  0.480000D+00           1.0000000
            F   1   1.00
                  0.660000D+00           1.0000000
            ****
            -Br     0
            S    10   1.00
                  0.233625D+07           0.532336D-04
                  0.349961D+06           0.413715D-03
                  0.796444D+05           0.217123D-02
                  0.225555D+05           0.910109D-02
                  0.735546D+04           0.323789D-01
                  0.265352D+04           0.988755D-01
                  0.103517D+04           0.248138D+00
                  0.422205D+03           0.474328D+00
                  0.180035D+03           0.500000D+00
                  0.793308D+02           0.187769D+00
            S    4   1.00
                  0.620834D+03          -0.226511D-01
                  0.190829D+03          -0.109497D+00
                  0.312505D+02           0.500000D+00
                  0.135270D+02           0.492812D+00
            S    2   1.00
                  0.216097D+02          -0.165418D+00
                  0.372566D+01           0.500000D+00
            S    1   1.00
                  0.169770D+01           1.0000000
            S    1   1.00
                  0.489332D+00           1.0000000
            S    1   1.00
                  0.175712D+00           1.0000000
            P    8   1.00
                  0.960829D+04           0.478974D-03
                  0.227618D+04           0.417853D-02
                  0.736723D+03           0.229315D-01
                  0.281579D+03           0.892653D-01
                  0.118395D+03           0.255288D+00
                  0.527481D+02           0.479074D+00
                  0.245098D+02           0.500000D+00
                  0.112009D+02           0.200944D+00
            P    4   1.00
                  0.587849D+02          -0.189674D-01
                  0.918962D+01           0.264104D+00
                  0.413895D+01           0.500000D+00
                  0.184225D+01           0.319316D+00
            P    1   1.00
                  0.713862D+00           1.0000000
            P    1   1.00
                  0.274232D+00           1.0000000
            P    1   1.00
                  0.944411D-01           1.0000000
            D    7   1.00
                  0.398470D+03           0.204066D-02
                  0.118967D+03           0.175171D-01
                  0.450197D+02           0.829708D-01
                  0.190320D+02           0.236284D+00
                  0.855686D+01           0.428468D+00
                  0.382950D+01           0.500000D+00
                  0.166291D+01           0.349360D+00
            D    1   1.00
                  0.672953D+00           1.0000000
            D    1   1.00
                  0.252000D+00           1.0000000
            F    1   1.00
                  0.530000D+00           1.0000000
            ****
            -Si     0
            S    8   1.00
                  0.996133D+05           0.235546D-03
                  0.149311D+05           0.182707D-02
                  0.339820D+04           0.951425D-02
                  0.962140D+03           0.388172D-01
                  0.313430D+03           0.127328D+00
                  0.112683D+03           0.313522D+00
                  0.433372D+02           0.500000D+00
                  0.170029D+02           0.340347D+00
            S    3   1.00
                  0.884208D+02          -0.404451D-01
                  0.266756D+02          -0.178059D+00
                  0.479640D+01           0.500000D+00
            S    2   1.00
                  0.239385D+01           0.500000D+00
                  0.108333D+01           0.338016D+00
            S    1   1.00
                  0.252420D+00           1.0000000
            S    1   1.00
                  0.891210D-01           1.0000000
            P    7   1.00
                  0.709901D+03           0.123028D-02
                  0.168426D+03           0.101366D-01
                  0.539946D+02           0.511840D-01
                  0.198646D+02           0.169967D+00
                  0.801369D+01           0.370717D+00
                  0.331870D+01           0.500000D+00
                  0.136112D+01           0.344128D+00
            P    2   1.00
                  0.622158D+01          -0.166609D-01
                  0.503049D+00           0.500000D+00
            P    1   1.00
                  0.179848D+00           1.0000000
            P    1   1.00
                  0.591912D-01           1.0000000
            D    1   1.00
                  0.168000D+01           1.0000000
            D    1   1.00
                  0.380000D+00           1.0000000
            F    1   1.00
                  0.540000D+00           1.0000000
            ****
            -P     0
            S    8   1.00
                  0.116416D+06           0.230715D-03
                  0.174500D+05           0.178960D-02
                  0.397149D+04           0.932116D-02
                  0.112447D+04           0.380591D-01
                  0.366347D+03           0.125148D+00
                  0.131757D+03           0.310022D+00
                  0.506988D+02           0.500000D+00
                  0.199436D+02           0.347528D+00
            S    3   1.00
                  0.101878D+03          -0.446755D-01
                  0.308249D+02          -0.196376D+00
                  0.573688D+01           0.500000D+00
            S    2   1.00
                  0.296868D+01           0.500000D+00
                  0.135315D+01           0.355098D+00
            S    1   1.00
                  0.332196D+00           1.0000000
            S    1   1.00
                  0.116229D+00           1.0000000
            P    7   1.00
                  0.873928D+03           0.112375D-02
                  0.207298D+03           0.933330D-02
                  0.664628D+02           0.477213D-01
                  0.245665D+02           0.160733D+00
                  0.996820D+01           0.359760D+00
                  0.416536D+01           0.500000D+00
                  0.173022D+01           0.346593D+00
            P    2   1.00
                  0.772530D+01          -0.175718D-01
                  0.657252D+00           0.500000D+00
            P    1   1.00
                  0.239903D+00           1.0000000
            P    1   1.00
                  0.800988D-01           1.0000000
            D    1   1.00
                  0.189000D+01           1.0000000
            D    1   1.00
                  0.430000D+00           1.0000000
            F    1   1.00
                  0.600000D+00           1.0000000
            ****
            
 Initial command:
 /usr/local/apps/g16_b01_avx/g16/l1.exe "/wrk/irikura/Gau-17116.inp" -scrdir="/wrk/irikura/"
 Entering Link 1 = /usr/local/apps/g16_b01_avx/g16/l1.exe PID=     17118.
  
 Copyright (c) 1988-2017, Gaussian, Inc.  All Rights Reserved.
  
 This is part of the Gaussian(R) 16 program.  It is based on
 the Gaussian(R) 09 system (copyright 2009, Gaussian, Inc.),
 the Gaussian(R) 03 system (copyright 2003, Gaussian, Inc.),
 the Gaussian(R) 98 system (copyright 1998, Gaussian, Inc.),
 the Gaussian(R) 94 system (copyright 1995, Gaussian, Inc.),
 the Gaussian 92(TM) system (copyright 1992, Gaussian, Inc.),
 the Gaussian 90(TM) system (copyright 1990, Gaussian, Inc.),
 the Gaussian 88(TM) system (copyright 1988, Gaussian, Inc.),
 the Gaussian 86(TM) system (copyright 1986, Carnegie Mellon
 University), and the Gaussian 82(TM) system (copyright 1983,
 Carnegie Mellon University). Gaussian is a federally registered
 trademark of Gaussian, Inc.
  
 This software contains proprietary and confidential information,
 including trade secrets, belonging to Gaussian, Inc.
  
 This software is provided under written license and may be
 used, copied, transmitted, or stored only in accord with that
 written license.
  
 The following legend is applicable only to US Government
 contracts under FAR:
  
                    RESTRICTED RIGHTS LEGEND
  
 Use, reproduction and disclosure by the US Government is
 subject to restrictions as set forth in subparagraphs (a)
 and (c) of the Commercial Computer Software - Restricted
 Rights clause in FAR 52.227-19.
  
 Gaussian, Inc.
 340 Quinnipiac St., Bldg. 40, Wallingford CT 06492
  
  
 ---------------------------------------------------------------
 Warning -- This program may not be used in any manner that
 competes with the business of Gaussian, Inc. or will provide
 assistance to any competitor of Gaussian, Inc.  The licensee
 of this program is prohibited from giving any competitor of
 Gaussian, Inc. access to this program.  By using this program,
 the user acknowledges that Gaussian, Inc. is engaged in the
 business of creating and licensing software in the field of
 computational chemistry and represents and warrants to the
 licensee that it is not a competitor of Gaussian, Inc. and that
 it will not use this program in any manner prohibited above.
 ---------------------------------------------------------------
  

 Cite this work as:
 Gaussian 16, Revision B.01,
 M. J. Frisch, G. W. Trucks, H. B. Schlegel, G. E. Scuseria, 
 M. A. Robb, J. R. Cheeseman, G. Scalmani, V. Barone, 
 G. A. Petersson, H. Nakatsuji, X. Li, M. Caricato, A. V. Marenich, 
 J. Bloino, B. G. Janesko, R. Gomperts, B. Mennucci, H. P. Hratchian, 
 J. V. Ortiz, A. F. Izmaylov, J. L. Sonnenberg, D. Williams-Young, 
 F. Ding, F. Lipparini, F. Egidi, J. Goings, B. Peng, A. Petrone, 
 T. Henderson, D. Ranasinghe, V. G. Zakrzewski, J. Gao, N. Rega, 
 G. Zheng, W. Liang, M. Hada, M. Ehara, K. Toyota, R. Fukuda, 
 J. Hasegawa, M. Ishida, T. Nakajima, Y. Honda, O. Kitao, H. Nakai, 
 T. Vreven, K. Throssell, J. A. Montgomery, Jr., J. E. Peralta, 
 F. Ogliaro, M. J. Bearpark, J. J. Heyd, E. N. Brothers, K. N. Kudin, 
 V. N. Staroverov, T. A. Keith, R. Kobayashi, J. Normand, 
 K. Raghavachari, A. P. Rendell, J. C. Burant, S. S. Iyengar, 
 J. Tomasi, M. Cossi, J. M. Millam, M. Klene, C. Adamo, R. Cammi, 
 J. W. Ochterski, R. L. Martin, K. Morokuma, O. Farkas, 
 J. B. Foresman, and D. J. Fox, Gaussian, Inc., Wallingford CT, 2016.
 
 ******************************************
 Gaussian 16:  ES64L-G16RevB.01 20-Dec-2017
                16-Jun-2022 
 ******************************************
 %mem=1000mw
 %nprocs=12
 Will use up to   12 processors via shared memory.
 --------------------
 # b3lyp/gen opt freq
 --------------------
 1/18=20,19=15,26=3,38=1/1,3;
 2/9=110,12=2,17=6,18=5,40=1/2;
 3/5=7,11=2,25=1,30=1,71=1,74=-5/1,2,3;
 4//1;
 5/5=2,38=5/2;
 6/7=2,8=2,9=2,10=2,28=1/1;
 7//1,2,3,16;
 1/18=20,19=15,26=3/3(2);
 2/9=110/2;
 99//99;
 2/9=110/2;
 3/5=7,6=1,11=2,25=1,30=1,71=1,74=-5,82=7/1,2,3;
 4/5=5,16=3,69=1/1;
 5/5=2,38=5/2;
 7//1,2,3,16;
 1/18=20,19=15,26=3/3(-5);
 2/9=110/2;
 6/7=2,8=2,9=2,10=2,19=2,28=1/1;
 99/9=1/99;
 -----------------------
 nitroxyl, B3LYP/pcseg-2
 -----------------------
 Symbolic Z-matrix:
 Charge =  0 Multiplicity = 2
 N                     0.        0.        0. 
 O                     0.        1.23306   0. 
 O                     1.06786  -0.61653   0. 
 O                    -1.06786  -0.61653   0. 
 

 GradGradGradGradGradGradGradGradGradGradGradGradGradGradGradGradGradGrad
 Berny optimization.
 Initialization pass.
                           ----------------------------
                           !    Initial Parameters    !
                           ! (Angstroms and Degrees)  !
 --------------------------                            --------------------------
 ! Name  Definition              Value          Derivative Info.                !
 --------------------------------------------------------------------------------
 ! R1    R(1,2)                  1.2331         estimate D2E/DX2                !
 ! R2    R(1,3)                  1.2331         estimate D2E/DX2                !
 ! R3    R(1,4)                  1.2331         estimate D2E/DX2                !
 ! A1    A(2,1,3)              120.0            estimate D2E/DX2                !
 ! A2    A(2,1,4)              120.0            estimate D2E/DX2                !
 ! A3    A(3,1,4)              120.0            estimate D2E/DX2                !
 ! D1    D(2,1,4,3)            180.0            estimate D2E/DX2                !
 --------------------------------------------------------------------------------
 Trust Radius=3.00D-01 FncErr=1.00D-07 GrdErr=1.00D-06 EigMax=2.50D+02 EigMin=1.00D-04
 Number of steps in this run=     20 maximum allowed number of steps=    100.
 GradGradGradGradGradGradGradGradGradGradGradGradGradGradGradGradGradGrad

                          Input orientation:                          
 ---------------------------------------------------------------------
 Center     Atomic      Atomic             Coordinates (Angstroms)
 Number     Number       Type             X           Y           Z
 ---------------------------------------------------------------------
      1          7           0        0.000000    0.000000    0.000000
      2          8           0        0.000000    1.233063    0.000000
      3          8           0        1.067864   -0.616532    0.000000
      4          8           0       -1.067864   -0.616531    0.000000
 ---------------------------------------------------------------------
                    Distance matrix (angstroms):
                    1          2          3          4
     1  N    0.000000
     2  O    1.233063   0.000000
     3  O    1.233063   2.135728   0.000000
     4  O    1.233063   2.135727   2.135728   0.000000
 Stoichiometry    NO3(2)
 Framework group  D3H[O(N),3C2(O)]
 Deg. of freedom     1
 Full point group                 D3H     NOp  12
 Largest Abelian subgroup         C2V     NOp   4
 Largest concise Abelian subgroup C2      NOp   2
                         Standard orientation:                         
 ---------------------------------------------------------------------
 Center     Atomic      Atomic             Coordinates (Angstroms)
 Number     Number       Type             X           Y           Z
 ---------------------------------------------------------------------
      1          7           0        0.000000    0.000000    0.000000
      2          8           0        0.000000    1.233063    0.000000
      3          8           0        1.067864   -0.616531    0.000000
      4          8           0       -1.067864   -0.616531    0.000000
 ---------------------------------------------------------------------
 Rotational constants (GHZ):          13.8539457          13.8539457           6.9269729
 General basis read from cards:  (5D, 7F)
 There are    56 symmetry adapted cartesian basis functions of A1  symmetry.
 There are    17 symmetry adapted cartesian basis functions of A2  symmetry.
 There are    40 symmetry adapted cartesian basis functions of B1  symmetry.
 There are    27 symmetry adapted cartesian basis functions of B2  symmetry.
 There are    46 symmetry adapted basis functions of A1  symmetry.
 There are    16 symmetry adapted basis functions of A2  symmetry.
 There are    34 symmetry adapted basis functions of B1  symmetry.
 There are    24 symmetry adapted basis functions of B2  symmetry.
   120 basis functions,   204 primitive gaussians,   140 cartesian basis functions
    16 alpha electrons       15 beta electrons
       nuclear repulsion energy       119.6708745846 Hartrees.
 NAtoms=    4 NActive=    4 NUniq=    2 SFac= 4.00D+00 NAtFMM=   60 NAOKFM=F Big=F
 Integral buffers will be    131072 words long.
 Raffenetti 2 integral format.
 Two-electron integral symmetry is turned on.
 One-electron integrals computed using PRISM.
 NBasis=   120 RedAO= T EigKep=  9.94D-04  NBF=    46    16    34    24
 NBsUse=   120 1.00D-06 EigRej= -1.00D+00 NBFU=    46    16    34    24
 ExpMin= 1.21D-01 ExpMax= 1.36D+04 ExpMxC= 4.64D+02 IAcc=3 IRadAn=         5 AccDes= 0.00D+00
 Harris functional with IExCor=  402 and IRadAn=       5 diagonalized for initial guess.
 HarFok:  IExCor=  402 AccDes= 0.00D+00 IRadAn=         5 IDoV= 1 UseB2=F ITyADJ=14
 ICtDFT=  3500011 ScaDFX=  1.000000  1.000000  1.000000  1.000000
 FoFCou: FMM=F IPFlag=           0 FMFlag=      100000 FMFlg1=           0
         NFxFlg=           0 DoJE=T BraDBF=F KetDBF=T FulRan=T
         wScrn=  0.000000 ICntrl=       500 IOpCl=  0 I1Cent=   200000004 NGrid=           0
         NMat0=    1 NMatS0=      1 NMatT0=    0 NMatD0=    1 NMtDS0=    0 NMtDT0=    0
 Petite list used in FoFCou.
 Initial guess orbital symmetries:
 Alpha Orbitals:
       Occupied  (E') (E') (A1') (A1') (A1') (E') (E') (A1') (E')
                 (E') (A2") (E') (E') (E") (E") (A2')
       Virtual   (A2") (A1') (E') (E') (A1') (A2") (E') (E') (A1')
                 (E") (E") (E') (E') (A2') (E') (E') (A2") (A1')
                 (E') (E') (E") (E") (E') (E') (A1') (E") (E")
                 (A1") (E') (E') (A2") (A1') (A2') (E') (E') (A1')
                 (A2") (E') (E') (E") (E") (A2') (E') (E') (E")
                 (E") (A2") (A1') (A1') (E') (E') (E') (E') (E")
                 (E") (E') (E') (A2") (A2') (E") (E") (E') (E')
                 (A2') (A1") (A1') (A2") (E') (E') (A1') (E") (E")
                 (E') (E') (A1') (E") (E") (E') (E') (A2") (E")
                 (E") (A1') (E') (E') (A1") (E") (E") (A1') (A2')
                 (E') (E') (E") (E") (A2") (E') (E') (E') (E')
                 (A2') (A1') (E') (E') (A1')
 Beta  Orbitals:
       Occupied  (E') (E') (A1') (A1') (A1') (E') (E') (A1') (E')
                 (E') (A2") (E') (E') (E") (E")
       Virtual   (A2') (A2") (A1') (E') (E') (A1') (A2") (E') (E')
                 (A1') (E") (E") (E') (E') (A2') (E') (E') (A2")
                 (A1') (E') (E') (E") (E") (E') (E') (A1') (E")
                 (E") (A1") (E') (E') (A2") (A1') (A2') (E') (E')
                 (A1') (A2") (E') (E') (E") (E") (A2') (E') (E')
                 (E") (E") (A2") (A1') (A1') (E') (E') (E') (E')
                 (E") (E") (E') (E') (A2") (A2') (E") (E") (E')
                 (E') (A2') (A1") (A1') (A2") (E') (E') (A1') (E")
                 (E") (E') (E') (A1') (E") (E") (E') (E') (A2")
                 (E") (E") (A1') (E') (E') (A1") (E") (E") (A1')
                 (A2') (E') (E') (E") (E") (A2") (E') (E') (E')
                 (E') (A2') (A1') (E') (E') (A1')
 The electronic state of the initial guess is 2-A2'.
 Initial guess <Sx>= 0.0000 <Sy>= 0.0000 <Sz>= 0.5000 <S**2>= 0.7500 S= 0.5000
 Keep R1 and R2 ints in memory in symmetry-blocked form, NReq=37991462.
 Requested convergence on RMS density matrix=1.00D-08 within 128 cycles.
 Requested convergence on MAX density matrix=1.00D-06.
 Requested convergence on             energy=1.00D-06.
 No special actions if energy rises.
 Integral accuracy reduced to 1.0D-05 until final iterations.
 Initial convergence to 1.0D-05 achieved.  Increase integral accuracy.
 SCF Done:  E(UB3LYP) =  -280.341343024     A.U. after   12 cycles
            NFock= 12  Conv=0.11D-08     -V/T= 2.0027
 <Sx>= 0.0000 <Sy>= 0.0000 <Sz>= 0.5000 <S**2>= 0.7564 S= 0.5032
 <L.S>=  0.00000000000    
 Annihilation of the first spin contaminant:
 S**2 before annihilation     0.7564,   after     0.7500

 **********************************************************************

            Population analysis using the SCF Density.

 **********************************************************************

 Orbital symmetries:
 Alpha Orbitals:
       Occupied  (E') (E') (A1') (A1') (A1') (E') (E') (A1') (A2")
                 (E') (E') (E') (E') (E") (E") (A2')
       Virtual   (A2") (A1') (E') (E') (A1') (A2") (E') (E') (A1')
                 (E") (E") (E') (E') (E') (E') (A2') (A2") (A1')
                 (E') (E') (E") (E") (E') (E') (A1') (E") (E")
                 (A1") (E') (E') (A2") (A1') (A2') (E') (E') (A2")
                 (A1') (E') (E') (E") (E") (A2') (E') (E') (A1')
                 (E") (E") (A2") (A1') (E') (E') (E') (E') (E")
                 (E") (E') (E') (A2") (A2') (E") (E") (E') (E')
                 (A2') (A1') (A1") (A2") (E') (E') (A1') (E') (E')
                 (E") (E") (A1') (E") (E") (E') (E') (A2") (E")
                 (E") (A1') (E') (E') (A1") (E") (E") (A1') (E')
                 (E') (A2') (E") (E") (A2") (E') (E') (A2') (E')
                 (E') (A1') (E') (E') (A1')
 Beta  Orbitals:
       Occupied  (E') (E') (A1') (A1') (A1') (E') (E') (A1') (A2")
                 (E') (E') (E") (E") (E') (E')
       Virtual   (A2') (A2") (A1') (E') (E') (A1') (A2") (E') (E')
                 (A1') (E") (E") (E') (E') (E') (E') (A2') (A2")
                 (A1') (E') (E') (E") (E") (E') (E') (A1') (E")
                 (E") (A1") (E') (E') (A2") (A1') (A2') (E') (E')
                 (A2") (A1') (E') (E') (E") (E") (A2') (E') (E')
                 (A1') (E") (E") (A2") (A1') (E') (E') (E') (E')
                 (E") (E") (E') (E') (A2") (A2') (E") (E") (A1')
                 (E') (E') (A1") (A2') (A2") (E') (E') (A1') (E')
                 (E') (E") (E") (A1') (E") (E") (E') (E') (A2")
                 (E") (E") (A1') (E') (E') (A1") (E") (E") (A1')
                 (E') (E') (A2') (E") (E") (A2") (E') (E') (A2')
                 (E') (E') (A1') (E') (E') (A1')
 The electronic state is 2-A2'.
 Alpha  occ. eigenvalues --  -19.26087 -19.26087 -19.26085 -14.66771  -1.36415
 Alpha  occ. eigenvalues --   -1.14756  -1.14756  -0.69860  -0.64244  -0.62139
 Alpha  occ. eigenvalues --   -0.62139  -0.44735  -0.44735  -0.40408  -0.40408
 Alpha  occ. eigenvalues --   -0.38420
 Alpha virt. eigenvalues --   -0.11467   0.07003   0.17603   0.17603   0.20374
 Alpha virt. eigenvalues --    0.22710   0.26386   0.26386   0.32936   0.35460
 Alpha virt. eigenvalues --    0.35460   0.37943   0.37943   0.43159   0.43159
 Alpha virt. eigenvalues --    0.43567   0.45215   0.57673   0.84511   0.84511
 Alpha virt. eigenvalues --    0.99870   0.99870   1.21972   1.21972   1.23777
 Alpha virt. eigenvalues --    1.45273   1.45273   1.46377   1.51273   1.51273
 Alpha virt. eigenvalues --    1.58437   1.67363   1.77211   1.84029   1.84029
 Alpha virt. eigenvalues --    1.89939   1.90929   1.97223   1.97223   2.00759
 Alpha virt. eigenvalues --    2.00759   2.24380   2.27927   2.27927   2.39659
 Alpha virt. eigenvalues --    2.40193   2.40193   2.41395   2.71987   2.77152
 Alpha virt. eigenvalues --    2.77152   2.87097   2.87097   3.43055   3.43055
 Alpha virt. eigenvalues --    3.60845   3.60845   3.68685   3.77314   3.90327
 Alpha virt. eigenvalues --    3.90327   3.91554   3.91554   3.91721   3.91922
 Alpha virt. eigenvalues --    3.92008   3.96957   4.26665   4.26665   4.35896
 Alpha virt. eigenvalues --    4.53903   4.53903   4.56169   4.56169   4.97145
 Alpha virt. eigenvalues --    5.07787   5.07787   5.28440   5.28440   5.47585
 Alpha virt. eigenvalues --    5.74593   5.74593   5.84955   5.89918   5.89918
 Alpha virt. eigenvalues --    5.94430   5.95991   5.95991   6.03487   6.17655
 Alpha virt. eigenvalues --    6.17655   6.19208   6.38857   6.38857   6.42594
 Alpha virt. eigenvalues --    6.54255   6.54255   6.74076   6.75364   6.75364
 Alpha virt. eigenvalues --    7.21539   7.33757   7.33757  10.02899
  Beta  occ. eigenvalues --  -19.25006 -19.25006 -19.25006 -14.66874  -1.35357
  Beta  occ. eigenvalues --   -1.12688  -1.12688  -0.68065  -0.64051  -0.60137
  Beta  occ. eigenvalues --   -0.60137  -0.39323  -0.39323  -0.38632  -0.38632
  Beta virt. eigenvalues --   -0.25351  -0.11023   0.07587   0.18251   0.18251
  Beta virt. eigenvalues --    0.20761   0.22868   0.26842   0.26842   0.33164
  Beta virt. eigenvalues --    0.35687   0.35687   0.39780   0.39780   0.43344
  Beta virt. eigenvalues --    0.43344   0.44765   0.45304   0.58053   0.85033
  Beta virt. eigenvalues --    0.85033   1.00130   1.00130   1.23403   1.23403
  Beta virt. eigenvalues --    1.24113   1.46580   1.46580   1.48321   1.52606
  Beta virt. eigenvalues --    1.52606   1.58375   1.68610   1.79254   1.84944
  Beta virt. eigenvalues --    1.84944   1.90217   1.91280   1.99432   1.99432
  Beta virt. eigenvalues --    2.01248   2.01248   2.28507   2.29593   2.29593
  Beta virt. eigenvalues --    2.40232   2.40797   2.40797   2.41945   2.72975
  Beta virt. eigenvalues --    2.78529   2.78529   2.88214   2.88214   3.43490
  Beta virt. eigenvalues --    3.43490   3.62080   3.62080   3.69058   3.78779
  Beta virt. eigenvalues --    3.92258   3.92258   3.92846   3.93338   3.93338
  Beta virt. eigenvalues --    3.93421   3.93666   3.98660   4.27065   4.27065
  Beta virt. eigenvalues --    4.36274   4.55599   4.55599   4.57292   4.57292
  Beta virt. eigenvalues --    4.98059   5.07573   5.07573   5.30639   5.30639
  Beta virt. eigenvalues --    5.47630   5.74918   5.74918   5.88057   5.92766
  Beta virt. eigenvalues --    5.92766   5.98148   5.99290   5.99290   6.04808
  Beta virt. eigenvalues --    6.19579   6.19579   6.21927   6.39553   6.39553
  Beta virt. eigenvalues --    6.43045   6.54676   6.54676   6.76012   6.77820
  Beta virt. eigenvalues --    6.77820   7.22315   7.34461   7.34461  10.03352
          Condensed to atoms (all electrons):
               1          2          3          4
     1  N    5.223996   0.371790   0.371790   0.371790
     2  O    0.371790   8.048855  -0.100217  -0.100217
     3  O    0.371790  -0.100217   8.048855  -0.100217
     4  O    0.371790  -0.100217  -0.100217   8.048855
          Atomic-Atomic Spin Densities.
               1          2          3          4
     1  N   -0.052740  -0.012190  -0.012190  -0.012190
     2  O   -0.012190   0.405271  -0.014988  -0.014988
     3  O   -0.012190  -0.014988   0.405271  -0.014988
     4  O   -0.012190  -0.014988  -0.014988   0.405271
 Mulliken charges and spin densities:
               1          2
     1  N    0.660633  -0.089311
     2  O   -0.220211   0.363104
     3  O   -0.220211   0.363104
     4  O   -0.220211   0.363104
 Sum of Mulliken charges =  -0.00000   1.00000
 Mulliken charges and spin densities with hydrogens summed into heavy atoms:
               1          2
     1  N    0.660633  -0.089311
     2  O   -0.220211   0.363104
     3  O   -0.220211   0.363104
     4  O   -0.220211   0.363104
 Electronic spatial extent (au):  <R**2>=            179.4011
 Charge=             -0.0000 electrons
 Dipole moment (field-independent basis, Debye):
    X=             -0.0000    Y=             -0.0000    Z=             -0.0000  Tot=              0.0000
 Quadrupole moment (field-independent basis, Debye-Ang):
   XX=            -22.9285   YY=            -22.9285   ZZ=            -20.1714
   XY=             -0.0000   XZ=              0.0000   YZ=             -0.0000
 Traceless Quadrupole moment (field-independent basis, Debye-Ang):
   XX=             -0.9190   YY=             -0.9190   ZZ=              1.8381
   XY=             -0.0000   XZ=              0.0000   YZ=             -0.0000
 Octapole moment (field-independent basis, Debye-Ang**2):
  XXX=              0.0000  YYY=             -0.9456  ZZZ=             -0.0000  XYY=              0.0000
  XXY=              0.9456  XXZ=             -0.0000  XZZ=              0.0000  YZZ=              0.0000
  YYZ=             -0.0000  XYZ=             -0.0000
 Hexadecapole moment (field-independent basis, Debye-Ang**3):
 XXXX=            -91.0219 YYYY=            -91.0219 ZZZZ=            -15.5336 XXXY=              0.0000
 XXXZ=              0.0000 YYYX=              0.0000 YYYZ=             -0.0000 ZZZX=              0.0000
 ZZZY=              0.0000 XXYY=            -30.3406 XXZZ=            -17.9412 YYZZ=            -17.9412
 XXYZ=              0.0000 YYXZ=              0.0000 ZZXY=              0.0000
 N-N= 1.196708745846D+02 E-N=-8.998288841713D+02  KE= 2.795733718400D+02
 Symmetry A1   KE= 1.881984941323D+02
 Symmetry A2   KE= 5.102973453579D+00
 Symmetry B1   KE= 7.735790833402D+01
 Symmetry B2   KE= 8.913995920105D+00
 Symmetry A1   SP= 9.202762038407D-15
 Symmetry A2   SP= 2.882053319955D-15
 Symmetry B1   SP= 1.000000000000D+00
 Symmetry B2   SP=-1.113145923568D-14
                          Isotropic Fermi Contact Couplings
        Atom                 a.u.       MegaHertz       Gauss      10(-4) cm-1
     1  N(14)             -0.03434     -11.09386      -3.95857      -3.70051
     2  O(17)              0.07607     -46.11179     -16.45383     -15.38124
     3  O(17)              0.07607     -46.11179     -16.45383     -15.38124
     4  O(17)              0.07607     -46.11179     -16.45383     -15.38124
 --------------------------------------------------------
       Center         ----  Spin Dipole Couplings  ----
                      3XX-RR        3YY-RR        3ZZ-RR
 --------------------------------------------------------
     1   Atom        0.044692      0.044692     -0.089383
     2   Atom        1.763277     -0.906380     -0.856897
     3   Atom       -0.238966      1.095863     -0.856897
     4   Atom       -0.238966      1.095863     -0.856897
 --------------------------------------------------------
                        XY            XZ            YZ
 --------------------------------------------------------
     1   Atom       -0.000000     -0.000000     -0.000000
     2   Atom       -0.000000     -0.000000      0.000000
     3   Atom        1.155996      0.000000     -0.000000
     4   Atom       -1.155996     -0.000000     -0.000000
 --------------------------------------------------------


 ---------------------------------------------------------------------------------
              Anisotropic Spin Dipole Couplings in Principal Axis System
 ---------------------------------------------------------------------------------

       Atom             a.u.   MegaHertz   Gauss  10(-4) cm-1        Axes

              Baa    -0.0894    -3.447    -1.230    -1.150  0.0000  0.0000  1.0000
     1 N(14)  Bbb     0.0447     1.724     0.615     0.575  0.0006  1.0000 -0.0000
              Bcc     0.0447     1.724     0.615     0.575  1.0000 -0.0006 -0.0000
 
              Baa    -0.9064    65.585    23.402    21.877  0.0000  1.0000  0.0000
     2 O(17)  Bbb    -0.8569    62.004    22.125    20.682  0.0000  0.0000  1.0000
              Bcc     1.7633  -127.589   -45.527   -42.559  1.0000 -0.0000  0.0000
 
              Baa    -0.9064    65.585    23.402    21.877  0.8660 -0.5000 -0.0000
     3 O(17)  Bbb    -0.8569    62.004    22.125    20.682  0.0000  0.0000  1.0000
              Bcc     1.7633  -127.589   -45.527   -42.559  0.5000  0.8660  0.0000
 
              Baa    -0.9064    65.585    23.402    21.877  0.8660  0.5000  0.0000
     4 O(17)  Bbb    -0.8569    62.004    22.125    20.682  0.0000  0.0000  1.0000
              Bcc     1.7633  -127.589   -45.527   -42.559 -0.5000  0.8660 -0.0000
 

 ---------------------------------------------------------------------------------

 Calling FoFJK, ICntrl=      2127 FMM=F ISym2X=1 I1Cent= 0 IOpClX= 1 NMat=1 NMatS=1 NMatT=0.
 ***** Axes restored to original set *****
 -------------------------------------------------------------------
 Center     Atomic                   Forces (Hartrees/Bohr)
 Number     Number              X              Y              Z
 -------------------------------------------------------------------
      1        7           0.000000000    0.000000000    0.000000000
      2        8          -0.000000001   -0.002563104   -0.000000000
      3        8          -0.002219712    0.001281553    0.000000000
      4        8           0.002219713    0.001281551   -0.000000000
 -------------------------------------------------------------------
 Cartesian Forces:  Max     0.002563104 RMS     0.001281552

 GradGradGradGradGradGradGradGradGradGradGradGradGradGradGradGradGradGrad
 Berny optimization.
 FormGI is forming the generalized inverse of G from B-inverse, IUseBI=4.
 Internal  Forces:  Max     0.002563104 RMS     0.001677945
 Search for a local minimum.
 Step number   1 out of a maximum of   20
 All quantities printed in internal units (Hartrees-Bohrs-Radians)
 Mixed Optimization -- RFO/linear search
 Second derivative matrix not updated -- first step.
 The second derivative matrix:
                          R1        R2        R3        A1        A2
           R1           0.89822
           R2           0.00000   0.89822
           R3           0.00000   0.00000   0.89822
           A1           0.00000   0.00000   0.00000   0.25000
           A2           0.00000   0.00000   0.00000   0.00000   0.25000
           A3           0.00000   0.00000   0.00000   0.00000   0.00000
           D1           0.00000   0.00000   0.00000   0.00000   0.00000
                          A3        D1
           A3           0.25000
           D1           0.00000   0.03503
 ITU=  0
     Eigenvalues ---    0.03503   0.25000   0.25000   0.89822   0.89822
     Eigenvalues ---    0.89822
 RFO step:  Lambda=-2.19417335D-05 EMin= 3.50306143D-02
 Linear search not attempted -- first point.
 Iteration  1 RMS(Cart)=  0.00186803 RMS(Int)=  0.00000000
 Iteration  2 RMS(Cart)=  0.00000000 RMS(Int)=  0.00000000
 ClnCor:  largest displacement from symmetrization is 3.24D-13 for atom     4.
 Variable       Old X    -DE/DX   Delta X   Delta X   Delta X     New X
                                 (Linear)    (Quad)   (Total)
    R1        2.33015  -0.00256   0.00000  -0.00285  -0.00285   2.32730
    R2        2.33015  -0.00256   0.00000  -0.00285  -0.00285   2.32730
    R3        2.33015  -0.00256   0.00000  -0.00285  -0.00285   2.32730
    A1        2.09440  -0.00000   0.00000  -0.00000   0.00000   2.09440
    A2        2.09440  -0.00000   0.00000  -0.00000   0.00000   2.09440
    A3        2.09440   0.00000   0.00000   0.00000   0.00000   2.09440
    D1        3.14159  -0.00000   0.00000   0.00000   0.00000   3.14159
         Item               Value     Threshold  Converged?
 Maximum Force            0.002563     0.000450     NO 
 RMS     Force            0.001678     0.000300     NO 
 Maximum Displacement     0.002853     0.001800     NO 
 RMS     Displacement     0.001868     0.001200     NO 
 Predicted change in Energy=-1.097087D-05
 GradGradGradGradGradGradGradGradGradGradGradGradGradGradGradGradGradGrad

                          Input orientation:                          
 ---------------------------------------------------------------------
 Center     Atomic      Atomic             Coordinates (Angstroms)
 Number     Number       Type             X           Y           Z
 ---------------------------------------------------------------------
      1          7           0        0.000000   -0.000000    0.000000
      2          8           0        0.000000    1.231553   -0.000000
      3          8           0        1.066556   -0.615777   -0.000000
      4          8           0       -1.066556   -0.615776   -0.000000
 ---------------------------------------------------------------------
                    Distance matrix (angstroms):
                    1          2          3          4
     1  N    0.000000
     2  O    1.231553   0.000000
     3  O    1.231553   2.133112   0.000000
     4  O    1.231553   2.133112   2.133112   0.000000
 Stoichiometry    NO3(2)
 Framework group  D3H[O(N),3C2(O)]
 Deg. of freedom     1
 Full point group                 D3H     NOp  12
 Largest Abelian subgroup         C2V     NOp   4
 Largest concise Abelian subgroup C2      NOp   2
                         Standard orientation:                         
 ---------------------------------------------------------------------
 Center     Atomic      Atomic             Coordinates (Angstroms)
 Number     Number       Type             X           Y           Z
 ---------------------------------------------------------------------
      1          7           0        0.000000    0.000000    0.000000
      2          8           0        0.000000    1.231553    0.000000
      3          8           0        1.066556   -0.615777    0.000000
      4          8           0       -1.066556   -0.615777    0.000000
 ---------------------------------------------------------------------
 Rotational constants (GHZ):          13.8879388          13.8879388           6.9439694
 Basis read from rwf:  (5D, 7F)
 There are    56 symmetry adapted cartesian basis functions of A1  symmetry.
 There are    17 symmetry adapted cartesian basis functions of A2  symmetry.
 There are    40 symmetry adapted cartesian basis functions of B1  symmetry.
 There are    27 symmetry adapted cartesian basis functions of B2  symmetry.
 There are    46 symmetry adapted basis functions of A1  symmetry.
 There are    16 symmetry adapted basis functions of A2  symmetry.
 There are    34 symmetry adapted basis functions of B1  symmetry.
 There are    24 symmetry adapted basis functions of B2  symmetry.
   120 basis functions,   204 primitive gaussians,   140 cartesian basis functions
    16 alpha electrons       15 beta electrons
       nuclear repulsion energy       119.8176013678 Hartrees.
 NAtoms=    4 NActive=    4 NUniq=    2 SFac= 4.00D+00 NAtFMM=   60 NAOKFM=F Big=F
 Integral buffers will be    131072 words long.
 Raffenetti 2 integral format.
 Two-electron integral symmetry is turned on.
 One-electron integrals computed using PRISM.
 NBasis=   120 RedAO= T EigKep=  9.86D-04  NBF=    46    16    34    24
 NBsUse=   120 1.00D-06 EigRej= -1.00D+00 NBFU=    46    16    34    24
 Initial guess from the checkpoint file:  "/wrk/irikura/Gau-17118.chk"
 B after Tr=     0.000000    0.000000   -0.000000
         Rot=    1.000000   -0.000000    0.000000   -0.000000 Ang=   0.00 deg.
 Initial guess orbital symmetries:
 Alpha Orbitals:
       Occupied  (E') (E') (A1') (A1') (A1') (E') (E') (A1') (A2")
                 (E') (E') (E') (E') (E") (E") (A2')
       Virtual   (A2") (A1') (E') (E') (A1') (A2") (E') (E') (A1')
                 (E") (E") (E') (E') (E') (E') (A2') (A2") (A1')
                 (E') (E') (E") (E") (E') (E') (A1') (E") (E")
                 (A1") (E') (E') (A2") (A1') (A2') (E') (E') (A2")
                 (A1') (E') (E') (E") (E") (A2') (E') (E') (A1')
                 (E") (E") (A2") (A1') (E') (E') (E') (E') (E")
                 (E") (E') (E') (A2") (A2') (E") (E") (E') (E')
                 (A2') (A1') (A1") (A2") (E') (E') (A1') (E') (E')
                 (E") (E") (A1') (E") (E") (E') (E') (A2") (E")
                 (E") (A1') (E') (E') (A1") (E") (E") (A1') (E')
                 (E') (A2') (E") (E") (A2") (E') (E') (A2') (E')
                 (E') (A1') (E') (E') (A1')
 Beta  Orbitals:
       Occupied  (E') (E') (A1') (A1') (A1') (E') (E') (A1') (A2")
                 (E') (E') (E") (E") (E') (E')
       Virtual   (A2') (A2") (A1') (E') (E') (A1') (A2") (E') (E')
                 (A1') (E") (E") (E') (E') (E') (E') (A2') (A2")
                 (A1') (E') (E') (E") (E") (E') (E') (A1') (E")
                 (E") (A1") (E') (E') (A2") (A1') (A2') (E') (E')
                 (A2") (A1') (E') (E') (E") (E") (A2') (E') (E')
                 (A1') (E") (E") (A2") (A1') (E') (E') (E') (E')
                 (E") (E") (E') (E') (A2") (A2') (E") (E") (A1')
                 (E') (E') (A1") (A2') (A2") (E') (E') (A1') (E')
                 (E') (E") (E") (A1') (E") (E") (E') (E') (A2")
                 (E") (E") (A1') (E') (E') (A1") (E") (E") (A1')
                 (E') (E') (A2') (E") (E") (A2") (E') (E') (A2')
                 (E') (E') (A1') (E') (E') (A1')
 Initial guess <Sx>= 0.0000 <Sy>= 0.0000 <Sz>= 0.5000 <S**2>= 0.7564 S= 0.5032
 Keep R1 and R2 ints in memory in symmetry-blocked form, NReq=37991462.
 Requested convergence on RMS density matrix=1.00D-08 within 128 cycles.
 Requested convergence on MAX density matrix=1.00D-06.
 Requested convergence on             energy=1.00D-06.
 No special actions if energy rises.
 SCF Done:  E(UB3LYP) =  -280.341355597     A.U. after    6 cycles
            NFock=  6  Conv=0.80D-08     -V/T= 2.0027
 <Sx>= 0.0000 <Sy>= 0.0000 <Sz>= 0.5000 <S**2>= 0.7564 S= 0.5032
 <L.S>=  0.00000000000    
 Annihilation of the first spin contaminant:
 S**2 before annihilation     0.7564,   after     0.7500
 Calling FoFJK, ICntrl=      2127 FMM=F ISym2X=1 I1Cent= 0 IOpClX= 1 NMat=1 NMatS=1 NMatT=0.
 ***** Axes restored to original set *****
 -------------------------------------------------------------------
 Center     Atomic                   Forces (Hartrees/Bohr)
 Number     Number              X              Y              Z
 -------------------------------------------------------------------
      1        7          -0.000000000    0.000000000    0.000000000
      2        8          -0.000000000   -0.000370107   -0.000000000
      3        8          -0.000320522    0.000185054    0.000000000
      4        8           0.000320522    0.000185054   -0.000000000
 -------------------------------------------------------------------
 Cartesian Forces:  Max     0.000370107 RMS     0.000185054

 GradGradGradGradGradGradGradGradGradGradGradGradGradGradGradGradGradGrad
 Berny optimization.
 Using GEDIIS/GDIIS optimizer.
 FormGI is forming the generalized inverse of G from B-inverse, IUseBI=4.
 Internal  Forces:  Max     0.000370107 RMS     0.000242292
 Search for a local minimum.
 Step number   2 out of a maximum of   20
 All quantities printed in internal units (Hartrees-Bohrs-Radians)
 Mixed Optimization -- En-DIIS/RFO-DIIS
 Update second derivatives using D2CorX and points    1    2
 DE= -1.26D-05 DEPred=-1.10D-05 R= 1.15D+00
 TightC=F SS=  1.41D+00  RLast= 4.94D-03 DXNew= 5.0454D-01 1.4827D-02
 Trust test= 1.15D+00 RLast= 4.94D-03 DXMaxT set to 3.00D-01
 The second derivative matrix:
                          R1        R2        R3        A1        A2
           R1           0.85499
           R2          -0.04323   0.85499
           R3          -0.04323  -0.04323   0.85499
           A1           0.00000   0.00000   0.00000   0.25000
           A2           0.00000   0.00000   0.00000   0.00000   0.25000
           A3          -0.00000  -0.00000  -0.00000  -0.00000  -0.00000
           D1           0.00000   0.00000   0.00000   0.00000   0.00000
                          A3        D1
           A3           0.25000
           D1          -0.00000   0.03503
 ITU=  1  0
 Use linear search instead of GDIIS.
     Eigenvalues ---    0.03503   0.25000   0.25000   0.76854   0.89822
     Eigenvalues ---    0.89822
 RFO step:  Lambda= 0.00000000D+00 EMin= 3.50306143D-02
 Quartic linear search produced a step of  0.16764.
 Iteration  1 RMS(Cart)=  0.00031315 RMS(Int)=  0.00000000
 Iteration  2 RMS(Cart)=  0.00000000 RMS(Int)=  0.00000000
 ClnCor:  largest displacement from symmetrization is 1.68D-13 for atom     3.
 Variable       Old X    -DE/DX   Delta X   Delta X   Delta X     New X
                                 (Linear)    (Quad)   (Total)
    R1        2.32730  -0.00037  -0.00048   0.00000  -0.00048   2.32682
    R2        2.32730  -0.00037  -0.00048  -0.00000  -0.00048   2.32682
    R3        2.32730  -0.00037  -0.00048  -0.00000  -0.00048   2.32682
    A1        2.09440  -0.00000   0.00000  -0.00000  -0.00000   2.09440
    A2        2.09440   0.00000   0.00000   0.00000   0.00000   2.09440
    A3        2.09440  -0.00000   0.00000  -0.00000  -0.00000   2.09440
    D1        3.14159  -0.00000   0.00000   0.00000   0.00000   3.14159
         Item               Value     Threshold  Converged?
 Maximum Force            0.000370     0.000450     YES
 RMS     Force            0.000242     0.000300     YES
 Maximum Displacement     0.000478     0.001800     YES
 RMS     Displacement     0.000313     0.001200     YES
 Predicted change in Energy=-2.673390D-07
 Optimization completed.
    -- Stationary point found.
                           ----------------------------
                           !   Optimized Parameters   !
                           ! (Angstroms and Degrees)  !
 --------------------------                            --------------------------
 ! Name  Definition              Value          Derivative Info.                !
 --------------------------------------------------------------------------------
 ! R1    R(1,2)                  1.2316         -DE/DX =   -0.0004              !
 ! R2    R(1,3)                  1.2316         -DE/DX =   -0.0004              !
 ! R3    R(1,4)                  1.2316         -DE/DX =   -0.0004              !
 ! A1    A(2,1,3)              120.0            -DE/DX =    0.0                 !
 ! A2    A(2,1,4)              120.0            -DE/DX =    0.0                 !
 ! A3    A(3,1,4)              120.0            -DE/DX =    0.0                 !
 ! D1    D(2,1,4,3)            180.0            -DE/DX =    0.0                 !
 --------------------------------------------------------------------------------
 GradGradGradGradGradGradGradGradGradGradGradGradGradGradGradGradGradGrad

                          Input orientation:                          
 ---------------------------------------------------------------------
 Center     Atomic      Atomic             Coordinates (Angstroms)
 Number     Number       Type             X           Y           Z
 ---------------------------------------------------------------------
      1          7           0       -0.000000   -0.000000   -0.000000
      2          8           0        0.000000    1.231553   -0.000000
      3          8           0        1.066556   -0.615777   -0.000000
      4          8           0       -1.066556   -0.615776   -0.000000
 ---------------------------------------------------------------------
                    Distance matrix (angstroms):
                    1          2          3          4
     1  N    0.000000
     2  O    1.231553   0.000000
     3  O    1.231553   2.133112   0.000000
     4  O    1.231553   2.133112   2.133112   0.000000
 Stoichiometry    NO3(2)
 Framework group  D3H[O(N),3C2(O)]
 Deg. of freedom     1
 Full point group                 D3H     NOp  12
 Largest Abelian subgroup         C2V     NOp   4
 Largest concise Abelian subgroup C2      NOp   2
                         Standard orientation:                         
 ---------------------------------------------------------------------
 Center     Atomic      Atomic             Coordinates (Angstroms)
 Number     Number       Type             X           Y           Z
 ---------------------------------------------------------------------
      1          7           0        0.000000    0.000000    0.000000
      2          8           0        0.000000    1.231553   -0.000000
      3          8           0        1.066556   -0.615777   -0.000000
      4          8           0       -1.066556   -0.615777   -0.000000
 ---------------------------------------------------------------------
 Rotational constants (GHZ):          13.8879388          13.8879388           6.9439694

 **********************************************************************

            Population analysis using the SCF Density.

 **********************************************************************

 Orbital symmetries:
 Alpha Orbitals:
       Occupied  (E') (E') (A1') (A1') (A1') (E') (E') (A1') (A2")
                 (E') (E') (E') (E') (E") (E") (A2')
       Virtual   (A2") (A1') (E') (E') (A1') (A2") (E') (E') (A1')
                 (E") (E") (E') (E') (E') (E') (A2') (A2") (A1')
                 (E') (E') (E") (E") (E') (E') (A1') (E") (E")
                 (A1") (E') (E') (A2") (A1') (A2') (E') (E') (A2")
                 (A1') (E') (E') (E") (E") (A2') (E') (E') (A1')
                 (E") (E") (A2") (A1') (E') (E') (E') (E') (E")
                 (E") (E') (E') (A2") (A2') (E") (E") (E') (E')
                 (A2') (A1") (A1') (A2") (E') (E') (A1') (E') (E')
                 (E") (E") (A1') (E") (E") (E') (E') (A2") (E")
                 (E") (A1') (E') (E') (A1") (E") (E") (A1') (E')
                 (E') (A2') (E") (E") (A2") (E') (E') (A2') (E')
                 (E') (A1') (E') (E') (A1')
 Beta  Orbitals:
       Occupied  (E') (E') (A1') (A1') (A1') (E') (E') (A1') (A2")
                 (E') (E') (E") (E") (E') (E')
       Virtual   (A2') (A2") (A1') (E') (E') (A1') (A2") (E') (E')
                 (A1') (E") (E") (E') (E') (E') (E') (A2') (A2")
                 (A1') (E') (E') (E") (E") (E') (E') (A1') (E")
                 (E") (A1") (E') (E') (A2") (A1') (A2') (E') (E')
                 (A2") (A1') (E') (E') (E") (E") (A2') (E') (E')
                 (A1') (E") (E") (A2") (A1') (E') (E') (E') (E')
                 (E") (E") (E') (E') (A2") (A2') (E") (E") (A1')
                 (E') (E') (A1") (A2') (A2") (E') (E') (A1') (E')
                 (E') (E") (E") (A1') (E") (E") (E') (E') (A2")
                 (E") (E") (A1') (E') (E') (A1") (E") (E") (A1')
                 (E') (E') (A2') (E") (E") (A2") (E') (E') (A2')
                 (E') (E') (A1') (E') (E') (A1')
 The electronic state is 2-A2'.
 Alpha  occ. eigenvalues --  -19.26058 -19.26058 -19.26056 -14.66767  -1.36557
 Alpha  occ. eigenvalues --   -1.14843  -1.14843  -0.69823  -0.64331  -0.62161
 Alpha  occ. eigenvalues --   -0.62161  -0.44748  -0.44748  -0.40415  -0.40415
 Alpha  occ. eigenvalues --   -0.38399
 Alpha virt. eigenvalues --   -0.11385   0.07074   0.17635   0.17635   0.20506
 Alpha virt. eigenvalues --    0.22701   0.26445   0.26445   0.32950   0.35460
 Alpha virt. eigenvalues --    0.35460   0.38078   0.38078   0.43167   0.43167
 Alpha virt. eigenvalues --    0.43575   0.45231   0.57702   0.84522   0.84522
 Alpha virt. eigenvalues --    0.99886   0.99886   1.22010   1.22010   1.23744
 Alpha virt. eigenvalues --    1.45347   1.45347   1.46431   1.51289   1.51289
 Alpha virt. eigenvalues --    1.58503   1.67386   1.77384   1.84086   1.84086
 Alpha virt. eigenvalues --    1.89941   1.91014   1.97136   1.97136   2.00828
 Alpha virt. eigenvalues --    2.00828   2.24500   2.27981   2.27981   2.39909
 Alpha virt. eigenvalues --    2.40336   2.40336   2.41511   2.71881   2.77335
 Alpha virt. eigenvalues --    2.77335   2.87224   2.87224   3.43201   3.43201
 Alpha virt. eigenvalues --    3.60997   3.60997   3.68775   3.77632   3.90340
 Alpha virt. eigenvalues --    3.90340   3.91591   3.91591   3.91757   3.92098
 Alpha virt. eigenvalues --    3.92251   3.97119   4.27048   4.27048   4.36232
 Alpha virt. eigenvalues --    4.54409   4.54409   4.56463   4.56463   4.97715
 Alpha virt. eigenvalues --    5.07722   5.07722   5.28948   5.28948   5.47931
 Alpha virt. eigenvalues --    5.75215   5.75215   5.85298   5.89931   5.89931
 Alpha virt. eigenvalues --    5.94496   5.96008   5.96008   6.03768   6.18204
 Alpha virt. eigenvalues --    6.18204   6.19136   6.38911   6.38911   6.42560
 Alpha virt. eigenvalues --    6.53617   6.53617   6.74990   6.75716   6.75716
 Alpha virt. eigenvalues --    7.22375   7.32816   7.32816  10.01997
  Beta  occ. eigenvalues --  -19.24977 -19.24977 -19.24977 -14.66870  -1.35499
  Beta  occ. eigenvalues --   -1.12777  -1.12777  -0.68027  -0.64138  -0.60154
  Beta  occ. eigenvalues --   -0.60154  -0.39330  -0.39330  -0.38649  -0.38649
  Beta virt. eigenvalues --   -0.25324  -0.10941   0.07651   0.18280   0.18280
  Beta virt. eigenvalues --    0.20898   0.22860   0.26904   0.26904   0.33181
  Beta virt. eigenvalues --    0.35687   0.35687   0.39915   0.39915   0.43355
  Beta virt. eigenvalues --    0.43355   0.44773   0.45321   0.58082   0.85044
  Beta virt. eigenvalues --    0.85044   1.00149   1.00149   1.23444   1.23444
  Beta virt. eigenvalues --    1.24081   1.46651   1.46651   1.48376   1.52617
  Beta virt. eigenvalues --    1.52617   1.58441   1.68632   1.79428   1.85002
  Beta virt. eigenvalues --    1.85002   1.90221   1.91363   1.99341   1.99341
  Beta virt. eigenvalues --    2.01319   2.01319   2.28626   2.29664   2.29664
  Beta virt. eigenvalues --    2.40484   2.40940   2.40940   2.42061   2.72871
  Beta virt. eigenvalues --    2.78702   2.78702   2.88340   2.88340   3.43637
  Beta virt. eigenvalues --    3.43637   3.62236   3.62236   3.69158   3.79104
  Beta virt. eigenvalues --    3.92269   3.92269   3.93173   3.93372   3.93372
  Beta virt. eigenvalues --    3.93511   3.93698   3.98812   4.27447   4.27447
  Beta virt. eigenvalues --    4.36609   4.56106   4.56106   4.57585   4.57585
  Beta virt. eigenvalues --    4.98629   5.07511   5.07511   5.31148   5.31148
  Beta virt. eigenvalues --    5.47976   5.75539   5.75539   5.88465   5.92815
  Beta virt. eigenvalues --    5.92815   5.98214   5.99306   5.99306   6.05029
  Beta virt. eigenvalues --    6.20098   6.20098   6.21845   6.39609   6.39609
  Beta virt. eigenvalues --    6.43010   6.54035   6.54035   6.76936   6.78162
  Beta virt. eigenvalues --    6.78162   7.23146   7.33527   7.33527  10.02454
          Condensed to atoms (all electrons):
               1          2          3          4
     1  N    5.219345   0.372875   0.372875   0.372875
     2  O    0.372875   8.049293  -0.100746  -0.100746
     3  O    0.372875  -0.100746   8.049293  -0.100746
     4  O    0.372875  -0.100746  -0.100746   8.049293
          Atomic-Atomic Spin Densities.
               1          2          3          4
     1  N   -0.052540  -0.012221  -0.012221  -0.012221
     2  O   -0.012221   0.405418  -0.015064  -0.015064
     3  O   -0.012221  -0.015064   0.405418  -0.015064
     4  O   -0.012221  -0.015064  -0.015064   0.405418
 Mulliken charges and spin densities:
               1          2
     1  N    0.662029  -0.089204
     2  O   -0.220676   0.363068
     3  O   -0.220676   0.363068
     4  O   -0.220676   0.363068
 Sum of Mulliken charges =  -0.00000   1.00000
 Mulliken charges and spin densities with hydrogens summed into heavy atoms:
               1          2
     1  N    0.662029  -0.089204
     2  O   -0.220676   0.363068
     3  O   -0.220676   0.363068
     4  O   -0.220676   0.363068
 Electronic spatial extent (au):  <R**2>=            179.0734
 Charge=              0.0000 electrons
 Dipole moment (field-independent basis, Debye):
    X=              0.0000    Y=             -0.0000    Z=             -0.0000  Tot=              0.0000
 Quadrupole moment (field-independent basis, Debye-Ang):
   XX=            -22.9271   YY=            -22.9271   ZZ=            -20.1625
   XY=              0.0000   XZ=             -0.0000   YZ=              0.0000
 Traceless Quadrupole moment (field-independent basis, Debye-Ang):
   XX=             -0.9215   YY=             -0.9215   ZZ=              1.8431
   XY=              0.0000   XZ=             -0.0000   YZ=              0.0000
 Octapole moment (field-independent basis, Debye-Ang**2):
  XXX=              0.0000  YYY=             -0.9508  ZZZ=              0.0000  XYY=             -0.0000
  XXY=              0.9508  XXZ=             -0.0000  XZZ=              0.0000  YZZ=              0.0000
  YYZ=              0.0000  XYZ=              0.0000
 Hexadecapole moment (field-independent basis, Debye-Ang**3):
 XXXX=            -90.8480 YYYY=            -90.8480 ZZZZ=            -15.5188 XXXY=              0.0000
 XXXZ=             -0.0000 YYYX=              0.0000 YYYZ=              0.0000 ZZZX=             -0.0000
 ZZZY=              0.0000 XXYY=            -30.2827 XXZZ=            -17.9065 YYZZ=            -17.9065
 XXYZ=              0.0000 YYXZ=             -0.0000 ZZXY=              0.0000
 N-N= 1.198176013678D+02 E-N=-9.001292404300D+02  KE= 2.795892929692D+02
 Symmetry A1   KE= 1.882055292667D+02
 Symmetry A2   KE= 5.103702628185D+00
 Symmetry B1   KE= 7.736443853793D+01
 Symmetry B2   KE= 8.915622536405D+00
 Symmetry A1   SP= 1.470421413753D-14
 Symmetry A2   SP= 5.208900259908D-15
 Symmetry B1   SP= 1.000000000000D+00
 Symmetry B2   SP=-5.995354046049D-15
                          Isotropic Fermi Contact Couplings
        Atom                 a.u.       MegaHertz       Gauss      10(-4) cm-1
     1  N(14)             -0.03429     -11.07937      -3.95339      -3.69568
     2  O(17)              0.07608     -46.11803     -16.45606     -15.38332
     3  O(17)              0.07608     -46.11803     -16.45606     -15.38332
     4  O(17)              0.07608     -46.11803     -16.45606     -15.38332
 --------------------------------------------------------
       Center         ----  Spin Dipole Couplings  ----
                      3XX-RR        3YY-RR        3ZZ-RR
 --------------------------------------------------------
     1   Atom        0.044731      0.044731     -0.089463
     2   Atom        1.763650     -0.906415     -0.857235
     3   Atom       -0.238899      1.096134     -0.857235
     4   Atom       -0.238899      1.096134     -0.857235
 --------------------------------------------------------
                        XY            XZ            YZ
 --------------------------------------------------------
     1   Atom       -0.000000      0.000000      0.000000
     2   Atom        0.000000     -0.000000     -0.000000
     3   Atom        1.156172     -0.000000      0.000000
     4   Atom       -1.156172      0.000000      0.000000
 --------------------------------------------------------


 ---------------------------------------------------------------------------------
              Anisotropic Spin Dipole Couplings in Principal Axis System
 ---------------------------------------------------------------------------------

       Atom             a.u.   MegaHertz   Gauss  10(-4) cm-1        Axes

              Baa    -0.0895    -3.450    -1.231    -1.151  0.0000  0.0000  1.0000
     1 N(14)  Bbb     0.0447     1.725     0.616     0.575  0.0010  1.0000  0.0000
              Bcc     0.0447     1.725     0.616     0.575  1.0000 -0.0010 -0.0000
 
              Baa    -0.9064    65.588    23.403    21.878 -0.0000  1.0000 -0.0000
     2 O(17)  Bbb    -0.8572    62.029    22.133    20.691  0.0000  0.0000  1.0000
              Bcc     1.7637  -127.617   -45.537   -42.568  1.0000  0.0000 -0.0000
 
              Baa    -0.9064    65.588    23.403    21.878  0.8660 -0.5000 -0.0000
     3 O(17)  Bbb    -0.8572    62.029    22.133    20.691  0.0000  0.0000  1.0000
              Bcc     1.7637  -127.617   -45.537   -42.568  0.5000  0.8660  0.0000
 
              Baa    -0.9064    65.588    23.403    21.878  0.8660  0.5000  0.0000
     4 O(17)  Bbb    -0.8572    62.029    22.133    20.691  0.0000  0.0000  1.0000
              Bcc     1.7637  -127.617   -45.537   -42.568 -0.5000  0.8660 -0.0000
 

 ---------------------------------------------------------------------------------

 1\1\GINC-GAMBA\FOpt\UB3LYP\Gen\N1O3(2)\IRIKURA\16-Jun-2022\0\\# b3lyp/
 gen opt freq\\nitroxyl, B3LYP/pcseg-2\\0,2\N,0.,0.,0.\O,0.0000004912,1
 .2315530101,0.\O,1.0665559473,-0.6157769304,0.\O,-1.0665564384,-0.6157
 760797,0.\\Version=ES64L-G16RevB.01\State=2-A2'\HF=-280.3413556\S2=0.7
 56399\S2-1=0.\S2A=0.750029\RMSD=7.989e-09\RMSF=1.851e-04\Dipole=0.,0.,
 0.\Quadrupole=-0.6851344,-0.6851344,1.3702689,0.,0.,0.\PG=D03H [O(N1),
 3C2(O1)]\\@


 PERICLES, SOPHOCLES,
 PELOPONESIAN WAR,
 FRENCH VERBS, LATIN VERBS
 H2SO4.
 Job cpu time:       0 days  0 hours  1 minutes 21.7 seconds.
 Elapsed time:       0 days  0 hours  0 minutes  7.0 seconds.
 File lengths (MBytes):  RWF=     16 Int=      0 D2E=      0 Chk=      3 Scr=      1
 Normal termination of Gaussian 16 at Thu Jun 16 17:20:44 2022.
 Link1:  Proceeding to internal job step number  2.
 ------------------------------------------------------------------
 #N Geom=AllCheck Guess=TCheck SCRF=Check GenChk UB3LYP/ChkBas Freq
 ------------------------------------------------------------------
 1/10=4,29=7,30=1,38=1,40=1/1,3;
 2/12=2,40=1/2;
 3/5=7,6=2,11=2,14=-4,25=1,30=1,67=1,70=2,71=2,74=-5,82=7,116=2,140=1/1,2,3;
 4/5=101/1;
 5/5=2,38=6,98=1/2;
 8/6=4,10=90,11=11/1;
 11/6=1,8=1,9=11,15=111,16=1/1,2,10;
 10/6=1/2;
 6/7=2,8=2,9=2,10=2,28=1/1;
 7/8=1,10=1,25=1/1,2,3,16;
 1/10=4,30=1/3;
 99//99;
 Structure from the checkpoint file:  "/wrk/irikura/Gau-17118.chk"
 -----------------------
 nitroxyl, B3LYP/pcseg-2
 -----------------------
 Charge =  0 Multiplicity = 2
 Redundant internal coordinates found in file.  (old form).
 N,0,0.,0.,0.
 O,0,0.0000004912,1.2315530101,0.
 O,0,1.0665559473,-0.6157769304,0.
 O,0,-1.0665564384,-0.6157760797,0.
 Recover connectivity data from disk.

 GradGradGradGradGradGradGradGradGradGradGradGradGradGradGradGradGradGrad
 Berny optimization.
 Initialization pass.
                           ----------------------------
                           !    Initial Parameters    !
                           ! (Angstroms and Degrees)  !
 --------------------------                            --------------------------
 ! Name  Definition              Value          Derivative Info.                !
 --------------------------------------------------------------------------------
 ! R1    R(1,2)                  1.2316         calculate D2E/DX2 analytically  !
 ! R2    R(1,3)                  1.2316         calculate D2E/DX2 analytically  !
 ! R3    R(1,4)                  1.2316         calculate D2E/DX2 analytically  !
 ! A1    A(2,1,3)              120.0            calculate D2E/DX2 analytically  !
 ! A2    A(2,1,4)              120.0            calculate D2E/DX2 analytically  !
 ! A3    A(3,1,4)              120.0            calculate D2E/DX2 analytically  !
 ! D1    D(2,1,4,3)            180.0            calculate D2E/DX2 analytically  !
 --------------------------------------------------------------------------------
 Trust Radius=3.00D-01 FncErr=1.00D-07 GrdErr=1.00D-07 EigMax=2.50D+02 EigMin=1.00D-04
 Number of steps in this run=      2 maximum allowed number of steps=      2.
 GradGradGradGradGradGradGradGradGradGradGradGradGradGradGradGradGradGrad

                          Input orientation:                          
 ---------------------------------------------------------------------
 Center     Atomic      Atomic             Coordinates (Angstroms)
 Number     Number       Type             X           Y           Z
 ---------------------------------------------------------------------
      1          7           0       -0.000000   -0.000000   -0.000000
      2          8           0        0.000000    1.231553   -0.000000
      3          8           0        1.066556   -0.615777   -0.000000
      4          8           0       -1.066556   -0.615776   -0.000000
 ---------------------------------------------------------------------
                    Distance matrix (angstroms):
                    1          2          3          4
     1  N    0.000000
     2  O    1.231553   0.000000
     3  O    1.231553   2.133112   0.000000
     4  O    1.231553   2.133112   2.133112   0.000000
 Stoichiometry    NO3(2)
 Framework group  D3H[O(N),3C2(O)]
 Deg. of freedom     1
 Full point group                 D3H     NOp  12
 Largest Abelian subgroup         C2V     NOp   4
 Largest concise Abelian subgroup C2      NOp   2
                         Standard orientation:                         
 ---------------------------------------------------------------------
 Center     Atomic      Atomic             Coordinates (Angstroms)
 Number     Number       Type             X           Y           Z
 ---------------------------------------------------------------------
      1          7           0        0.000000    0.000000    0.000000
      2          8           0        0.000000    1.231553   -0.000000
      3          8           0        1.066556   -0.615777   -0.000000
      4          8           0       -1.066556   -0.615777   -0.000000
 ---------------------------------------------------------------------
 Rotational constants (GHZ):          13.8879388          13.8879388           6.9439694
 Basis read from chk: "/wrk/irikura/Gau-17118.chk" (5D, 7F)
 There are    56 symmetry adapted cartesian basis functions of A1  symmetry.
 There are    17 symmetry adapted cartesian basis functions of A2  symmetry.
 There are    40 symmetry adapted cartesian basis functions of B1  symmetry.
 There are    27 symmetry adapted cartesian basis functions of B2  symmetry.
 There are    46 symmetry adapted basis functions of A1  symmetry.
 There are    16 symmetry adapted basis functions of A2  symmetry.
 There are    34 symmetry adapted basis functions of B1  symmetry.
 There are    24 symmetry adapted basis functions of B2  symmetry.
   120 basis functions,   204 primitive gaussians,   140 cartesian basis functions
    16 alpha electrons       15 beta electrons
       nuclear repulsion energy       119.8176013678 Hartrees.
 NAtoms=    4 NActive=    4 NUniq=    2 SFac= 4.00D+00 NAtFMM=   60 NAOKFM=F Big=F
 Integral buffers will be    131072 words long.
 Raffenetti 2 integral format.
 Two-electron integral symmetry is turned on.
 One-electron integrals computed using PRISM.
 NBasis=   120 RedAO= T EigKep=  9.86D-04  NBF=    46    16    34    24
 NBsUse=   120 1.00D-06 EigRej= -1.00D+00 NBFU=    46    16    34    24
 Initial guess from the checkpoint file:  "/wrk/irikura/Gau-17118.chk"
 B after Tr=     0.000000    0.000000   -0.000000
         Rot=    1.000000   -0.000000    0.000000    0.000000 Ang=   0.00 deg.
 Initial guess orbital symmetries:
 Alpha Orbitals:
       Occupied  (E') (E') (A1') (A1') (A1') (E') (E') (A1') (A2")
                 (E') (E') (E') (E') (E") (E") (A2')
       Virtual   (A2") (A1') (E') (E') (A1') (A2") (E') (E') (A1')
                 (E") (E") (E') (E') (E') (E') (A2') (A2") (A1')
                 (E') (E') (E") (E") (E') (E') (A1') (E") (E")
                 (A1") (E') (E') (A2") (A1') (A2') (E') (E') (A2")
                 (A1') (E') (E') (E") (E") (A2') (E') (E') (A1')
                 (E") (E") (A2") (A1') (E') (E') (E') (E') (E")
                 (E") (E') (E') (A2") (A2') (E") (E") (E') (E')
                 (A2') (A1") (A1') (A2") (E') (E') (A1') (E') (E')
                 (E") (E") (A1') (E") (E") (E') (E') (A2") (E")
                 (E") (A1') (E') (E') (A1") (E") (E") (A1') (E')
                 (E') (A2') (E") (E") (A2") (E') (E') (A2') (E')
                 (E') (A1') (E') (E') (A1')
 Beta  Orbitals:
       Occupied  (E') (E') (A1') (A1') (A1') (E') (E') (A1') (A2")
                 (E') (E') (E") (E") (E') (E')
       Virtual   (A2') (A2") (A1') (E') (E') (A1') (A2") (E') (E')
                 (A1') (E") (E") (E') (E') (E') (E') (A2') (A2")
                 (A1') (E') (E') (E") (E") (E') (E') (A1') (E")
                 (E") (A1") (E') (E') (A2") (A1') (A2') (E') (E')
                 (A2") (A1') (E') (E') (E") (E") (A2') (E') (E')
                 (A1') (E") (E") (A2") (A1') (E') (E') (E') (E')
                 (E") (E") (E') (E') (A2") (A2') (E") (E") (A1')
                 (E') (E') (A1") (A2') (A2") (E') (E') (A1') (E')
                 (E') (E") (E") (A1') (E") (E") (E') (E') (A2")
                 (E") (E") (A1') (E') (E') (A1") (E") (E") (A1')
                 (E') (E') (A2') (E") (E") (A2") (E') (E') (A2')
                 (E') (E') (A1') (E') (E') (A1')
 Initial guess <Sx>= 0.0000 <Sy>= 0.0000 <Sz>= 0.5000 <S**2>= 0.7564 S= 0.5032
 Keep R1 and R2 ints in memory in symmetry-blocked form, NReq=37991462.
 Requested convergence on RMS density matrix=1.00D-08 within 128 cycles.
 Requested convergence on MAX density matrix=1.00D-06.
 Requested convergence on             energy=1.00D-06.
 No special actions if energy rises.
 SCF Done:  E(UB3LYP) =  -280.341355597     A.U. after    1 cycles
            NFock=  1  Conv=0.29D-08     -V/T= 2.0027
 <Sx>= 0.0000 <Sy>= 0.0000 <Sz>= 0.5000 <S**2>= 0.7564 S= 0.5032
 <L.S>=  0.00000000000    
 Annihilation of the first spin contaminant:
 S**2 before annihilation     0.7564,   after     0.7500
 DoSCS=F DFT=T ScalE2(SS,OS)=  1.000000  1.000000
 Range of M.O.s used for correlation:     1   120
 NBasis=   120 NAE=    16 NBE=    15 NFC=     0 NFV=     0
 NROrb=    120 NOA=    16 NOB=    15 NVA=   104 NVB=   105

 **** Warning!!: The largest alpha MO coefficient is  0.23341149D+02


 **** Warning!!: The largest beta MO coefficient is  0.23326963D+02

 Symmetrizing basis deriv contribution to polar:
 IMax=3 JMax=2 DiffMx= 0.00D+00
 G2DrvN: will do     5 centers at a time, making    1 passes.
 Calling FoFCou, ICntrl=  3107 FMM=F I1Cent=   0 AccDes= 0.00D+00.
 End of G2Drv F.D. properties file   721 does not exist.
 End of G2Drv F.D. properties file   722 does not exist.
 End of G2Drv F.D. properties file   788 does not exist.
          IDoAtm=1111
          Differentiating once with respect to electric field.
                with respect to dipole field.
          Differentiating once with respect to nuclear coordinates.
 Keep R1 and R2 ints in memory in symmetry-blocked form, NReq=37953518.
          There are     9 degrees of freedom in the 1st order CPHF.  IDoFFX=4 NUNeed=     9.
      9 vectors produced by pass  0 Test12= 3.60D-14 1.11D-08 XBig12= 1.67D+02 1.07D+01.
 AX will form     9 AO Fock derivatives at one time.
      9 vectors produced by pass  1 Test12= 3.60D-14 1.11D-08 XBig12= 1.20D+02 2.95D+00.
      9 vectors produced by pass  2 Test12= 3.60D-14 1.11D-08 XBig12= 1.19D+01 1.07D+00.
      9 vectors produced by pass  3 Test12= 3.60D-14 1.11D-08 XBig12= 6.44D-01 2.61D-01.
      9 vectors produced by pass  4 Test12= 3.60D-14 1.11D-08 XBig12= 6.32D-02 1.33D-01.
      9 vectors produced by pass  5 Test12= 3.60D-14 1.11D-08 XBig12= 2.44D-03 1.96D-02.
      9 vectors produced by pass  6 Test12= 3.60D-14 1.11D-08 XBig12= 4.04D-05 1.69D-03.
      8 vectors produced by pass  7 Test12= 3.60D-14 1.11D-08 XBig12= 2.99D-07 1.77D-04.
      6 vectors produced by pass  8 Test12= 3.60D-14 1.11D-08 XBig12= 4.66D-09 1.66D-05.
      3 vectors produced by pass  9 Test12= 3.60D-14 1.11D-08 XBig12= 3.64D-11 1.70D-06.
      2 vectors produced by pass 10 Test12= 3.60D-14 1.11D-08 XBig12= 3.15D-13 1.47D-07.
 InvSVY:  IOpt=1 It=  1 EMax= 5.27D-16
 Solved reduced A of dimension    82 with     9 vectors.
 Isotropic polarizability for W=    0.000000       25.75 Bohr**3.
 End of Minotr F.D. properties file   721 does not exist.
 End of Minotr F.D. properties file   722 does not exist.
 End of Minotr F.D. properties file   788 does not exist.

 **********************************************************************

            Population analysis using the SCF Density.

 **********************************************************************

 Orbital symmetries:
 Alpha Orbitals:
[...]
  Beta virt. eigenvalues --    3.92269   3.92269   3.93173   3.93372   3.93372
  Beta virt. eigenvalues --    3.93511   3.93698   3.98812   4.27447   4.27447
  Beta virt. eigenvalues --    4.36609   4.56106   4.56106   4.57585   4.57585
  Beta virt. eigenvalues --    4.98629   5.07511   5.07511   5.31148   5.31148
  Beta virt. eigenvalues --    5.47976   5.75539   5.75539   5.88465   5.92815
  Beta virt. eigenvalues --    5.92815   5.98214   5.99306   5.99306   6.05029
  Beta virt. eigenvalues --    6.20098   6.20098   6.21845   6.39609   6.39609
  Beta virt. eigenvalues --    6.43010   6.54035   6.54035   6.76936   6.78162
  Beta virt. eigenvalues --    6.78162   7.23146   7.33527   7.33527  10.02454
          Condensed to atoms (all electrons):
               1          2          3          4
     1  N    5.219345   0.372875   0.372875   0.372875
     2  O    0.372875   8.049293  -0.100746  -0.100746
     3  O    0.372875  -0.100746   8.049293  -0.100746
     4  O    0.372875  -0.100746  -0.100746   8.049293
          Atomic-Atomic Spin Densities.
               1          2          3          4
     1  N   -0.052539  -0.012221  -0.012221  -0.012221
     2  O   -0.012221   0.405418  -0.015064  -0.015064
     3  O   -0.012221  -0.015064   0.405418  -0.015064
     4  O   -0.012221  -0.015064  -0.015064   0.405418
 Mulliken charges and spin densities:
               1          2
     1  N    0.662029  -0.089203
     2  O   -0.220676   0.363068
     3  O   -0.220676   0.363068
     4  O   -0.220676   0.363068
 Sum of Mulliken charges =  -0.00000   1.00000
 Mulliken charges and spin densities with hydrogens summed into heavy atoms:
               1          2
     1  N    0.662029  -0.089203
     2  O   -0.220676   0.363068
     3  O   -0.220676   0.363068
     4  O   -0.220676   0.363068
 APT charges:
               1
     1  N   -0.052954
     2  O    0.017651
     3  O    0.017651
     4  O    0.017651
 Sum of APT charges =  -0.00000
 APT charges with hydrogens summed into heavy atoms:
               1
     1  N   -0.052954
     2  O    0.017651
     3  O    0.017651
     4  O    0.017651
 Electronic spatial extent (au):  <R**2>=            179.0734
 Charge=              0.0000 electrons
 Dipole moment (field-independent basis, Debye):
    X=              0.0000    Y=              0.0000    Z=             -0.0000  Tot=              0.0000
 Quadrupole moment (field-independent basis, Debye-Ang):
   XX=            -22.9271   YY=            -22.9271   ZZ=            -20.1625
   XY=             -0.0000   XZ=              0.0000   YZ=             -0.0000
 Traceless Quadrupole moment (field-independent basis, Debye-Ang):
   XX=             -0.9215   YY=             -0.9215   ZZ=              1.8431
   XY=             -0.0000   XZ=              0.0000   YZ=             -0.0000
 Octapole moment (field-independent basis, Debye-Ang**2):
  XXX=              0.0000  YYY=             -0.9508  ZZZ=             -0.0000  XYY=              0.0000
  XXY=              0.9508  XXZ=             -0.0000  XZZ=              0.0000  YZZ=              0.0000
  YYZ=              0.0000  XYZ=             -0.0000
 Hexadecapole moment (field-independent basis, Debye-Ang**3):
 XXXX=            -90.8480 YYYY=            -90.8480 ZZZZ=            -15.5188 XXXY=              0.0000
 XXXZ=              0.0000 YYYX=              0.0000 YYYZ=             -0.0000 ZZZX=              0.0000
 ZZZY=             -0.0000 XXYY=            -30.2827 XXZZ=            -17.9065 YYZZ=            -17.9065
 XXYZ=             -0.0000 YYXZ=              0.0000 ZZXY=              0.0000
 N-N= 1.198176013678D+02 E-N=-9.001292412889D+02  KE= 2.795892940520D+02
 Symmetry A1   KE= 1.882055297128D+02
 Symmetry A2   KE= 5.103702743029D+00
 Symmetry B1   KE= 7.736443882873D+01
 Symmetry B2   KE= 8.915622767412D+00
 Symmetry A1   SP= 2.085425821084D-15
 Symmetry A2   SP= 3.744902066401D-17
 Symmetry B1   SP= 1.000000000000D+00
 Symmetry B2   SP=-1.575003131794D-15
  Exact polarizability:  32.649  -0.000  32.650   0.000  -0.000  11.940
 Approx polarizability:  73.738  -0.000  73.738   0.000   0.000  16.083
                          Isotropic Fermi Contact Couplings
        Atom                 a.u.       MegaHertz       Gauss      10(-4) cm-1
     1  N(14)             -0.03429     -11.07910      -3.95330      -3.69559
     2  O(17)              0.07608     -46.11785     -16.45600     -15.38326
     3  O(17)              0.07608     -46.11785     -16.45600     -15.38326
     4  O(17)              0.07608     -46.11785     -16.45600     -15.38326
 --------------------------------------------------------
       Center         ----  Spin Dipole Couplings  ----
                      3XX-RR        3YY-RR        3ZZ-RR
 --------------------------------------------------------
     1   Atom        0.044731      0.044731     -0.089461
     2   Atom        1.763651     -0.906415     -0.857236
     3   Atom       -0.238898      1.096134     -0.857236
     4   Atom       -0.238898      1.096134     -0.857236
 --------------------------------------------------------
                        XY            XZ            YZ
 --------------------------------------------------------
     1   Atom       -0.000000     -0.000000      0.000000
     2   Atom        0.000000      0.000000     -0.000000
     3   Atom        1.156172     -0.000000      0.000000
     4   Atom       -1.156172      0.000000      0.000000
 --------------------------------------------------------


 ---------------------------------------------------------------------------------
              Anisotropic Spin Dipole Couplings in Principal Axis System
 ---------------------------------------------------------------------------------

       Atom             a.u.   MegaHertz   Gauss  10(-4) cm-1        Axes

              Baa    -0.0895    -3.450    -1.231    -1.151  0.0000  0.0000  1.0000
     1 N(14)  Bbb     0.0447     1.725     0.616     0.575  0.0008  1.0000  0.0000
              Bcc     0.0447     1.725     0.616     0.575  1.0000 -0.0008  0.0000
 
              Baa    -0.9064    65.588    23.403    21.878 -0.0000  1.0000 -0.0000
     2 O(17)  Bbb    -0.8572    62.029    22.133    20.691  0.0000  0.0000  1.0000
              Bcc     1.7637  -127.617   -45.537   -42.568  1.0000  0.0000 -0.0000
 
              Baa    -0.9064    65.588    23.403    21.878  0.8660 -0.5000  0.0000
     3 O(17)  Bbb    -0.8572    62.029    22.133    20.691  0.0000  0.0000  1.0000
              Bcc     1.7637  -127.617   -45.537   -42.568  0.5000  0.8660 -0.0000
 
              Baa    -0.9064    65.588    23.403    21.878  0.8660  0.5000  0.0000
     4 O(17)  Bbb    -0.8572    62.029    22.133    20.691  0.0000  0.0000  1.0000
              Bcc     1.7637  -127.617   -45.537   -42.568 -0.5000  0.8660 -0.0000
 

 ---------------------------------------------------------------------------------

 Calling FoFJK, ICntrl=    100127 FMM=F ISym2X=1 I1Cent= 0 IOpClX= 1 NMat=1 NMatS=1 NMatT=0.
 Full mass-weighted force constant matrix:
 Low frequencies ---   -0.0951   -0.0932   -0.0029   15.7123   16.6299   16.6299
 Low frequencies ---  229.1642  229.4015  805.1703
 Diagonal vibrational polarizability:
        8.8455279       8.8712944       0.4781449
 Harmonic frequencies (cm**-1), IR intensities (KM/Mole), Raman scattering
 activities (A**4/AMU), depolarization ratios for plane and unpolarized
 incident light, reduced masses (AMU), force constants (mDyne/A),
 and normal coordinates:
                      1                      2                      3
                     E'                     E'                     A2"
 Frequencies --    229.1642               229.4015               805.1703
 Red. masses --     15.1586                15.1587                14.4084
 Frc consts  --      0.4690                 0.4700                 5.5035
 IR Inten    --     17.2910                17.2764                11.5187
  Atom  AN      X      Y      Z        X      Y      Z        X      Y      Z
     1   7     0.00   0.65  -0.00     0.65  -0.00   0.00     0.00  -0.00   0.89
     2   8    -0.00   0.21   0.00    -0.59  -0.00  -0.00     0.00   0.00  -0.26
     3   8    -0.34  -0.39   0.00     0.01  -0.34  -0.00    -0.00  -0.00  -0.26
     4   8     0.34  -0.39   0.00     0.01   0.34  -0.00     0.00  -0.00  -0.26
                      4                      5                      6
                     E'                     E'                     A1'
 Frequencies --   1102.5724              1102.6198              1129.9890
 Red. masses --     15.1620                15.1618                15.9949
 Frc consts  --     10.8598                10.8606                12.0332
 IR Inten    --      0.4851                 0.4871                 0.0000
  Atom  AN      X      Y      Z        X      Y      Z        X      Y      Z
     1   7     0.00   0.65   0.00     0.65  -0.00  -0.00    -0.00   0.00   0.00
     2   8     0.00  -0.59  -0.00     0.21   0.00   0.00    -0.00   0.58  -0.00
     3   8     0.34   0.01  -0.00    -0.39   0.34   0.00     0.50  -0.29  -0.00
     4   8    -0.34   0.01  -0.00    -0.39  -0.34   0.00    -0.50  -0.29  -0.00

 -------------------
 - Thermochemistry -
 -------------------
 Temperature   298.150 Kelvin.  Pressure   1.00000 Atm.
 Atom     1 has atomic number  7 and mass  14.00307
 Atom     2 has atomic number  8 and mass  15.99491
 Atom     3 has atomic number  8 and mass  15.99491
 Atom     4 has atomic number  8 and mass  15.99491
 Molecular mass:    61.98782 amu.
 Principal axes and moments of inertia in atomic units:
                           1         2         3
     Eigenvalues --   129.95026 129.95026 259.90051
           X            0.70711   0.70711   0.00000
           Y           -0.70711   0.70711   0.00000
           Z            0.00000  -0.00000   1.00000
 This molecule is an oblate symmetric top.
 Rotational symmetry number  6.
 Rotational temperatures (Kelvin)      0.66652     0.66652     0.33326
 Rotational constants (GHZ):          13.88794    13.88794     6.94397
 Zero-point vibrational energy      27507.6 (Joules/Mol)
                                    6.57448 (Kcal/Mol)
 Warning -- explicit consideration of   2 degrees of freedom as
           vibrations may cause significant error
 Vibrational temperatures:    329.72   330.06  1158.46  1586.36  1586.42
          (Kelvin)           1625.80
 
 Zero-point correction=                           0.010477 (Hartree/Particle)
 Thermal correction to Energy=                    0.014491
 Thermal correction to Enthalpy=                  0.015435
 Thermal correction to Gibbs Free Energy=        -0.014622
 Sum of electronic and zero-point Energies=           -280.330878
 Sum of electronic and thermal Energies=              -280.326865
 Sum of electronic and thermal Enthalpies=            -280.325921
 Sum of electronic and thermal Free Energies=         -280.355978
 
                     E (Thermal)             CV                S
                      KCal/Mol        Cal/Mol-Kelvin    Cal/Mol-Kelvin
 Total                    9.093             11.007             63.260
 Electronic               0.000              0.000              1.377
 Translational            0.889              2.981             38.292
 Rotational               0.889              2.981             19.439
 Vibrational              7.316              5.046              4.151
 Vibration     1          0.652              1.796              1.885
 Vibration     2          0.652              1.796              1.884
                       Q            Log10(Q)             Ln(Q)
 Total Bot       0.531647D+07          6.725623         15.486320
 Total V=0       0.350552D+12         11.544752         26.582775
 Vib (Bot)       0.350594D-04         -4.455195        -10.258466
 Vib (Bot)    1  0.859777D+00         -0.065614         -0.151082
 Vib (Bot)    2  0.858799D+00         -0.066109         -0.152221
 Vib (V=0)       0.231171D+01          0.363934          0.837989
 Vib (V=0)    1  0.149459D+01          0.174523          0.401854
 Vib (V=0)    2  0.149375D+01          0.174277          0.401288
 Electronic      0.200000D+01          0.301030          0.693147
 Translational   0.191829D+08          7.282913         16.769528
 Rotational      0.395253D+04          3.596875          8.282111
 ***** Axes restored to original set *****
 -------------------------------------------------------------------
 Center     Atomic                   Forces (Hartrees/Bohr)
 Number     Number              X              Y              Z
 -------------------------------------------------------------------
      1        7          -0.000000000    0.000000000    0.000000000
      2        8          -0.000000000   -0.000370228   -0.000000000
      3        8          -0.000320627    0.000185114    0.000000000
      4        8           0.000320627    0.000185114   -0.000000000
 -------------------------------------------------------------------
 Cartesian Forces:  Max     0.000370228 RMS     0.000185114
 FormGI is forming the generalized inverse of G from B-inverse, IUseBI=4.

 GradGradGradGradGradGradGradGradGradGradGradGradGradGradGradGradGradGrad
 Berny optimization.
 Internal  Forces:  Max     0.000370228 RMS     0.000242371
 Search for a local minimum.
 Step number   1 out of a maximum of    2
 All quantities printed in internal units (Hartrees-Bohrs-Radians)
 Second derivative matrix not updated -- analytic derivatives used.
 The second derivative matrix:
                          R1        R2        R3        A1        A2
           R1           0.52621
           R2           0.12334   0.52622
           R3           0.12334   0.12334   0.52622
           A1           0.06674   0.06674  -0.13348   0.08196
           A2           0.06674  -0.13348   0.06674  -0.04098   0.08196
           A3          -0.13349   0.06674   0.06674  -0.04097  -0.04097
           D1           0.00000  -0.00000   0.00000  -0.00000   0.00000
                          A3        D1
           A3           0.08194
           D1           0.00000   0.11982
 ITU=  0
     Eigenvalues ---    0.01858   0.01862   0.11982   0.50720   0.50720
     Eigenvalues ---    0.77290
 Angle between quadratic step and forces=   0.00 degrees.
 Linear search not attempted -- first point.
 Iteration  1 RMS(Cart)=  0.00031359 RMS(Int)=  0.00000000
 Iteration  2 RMS(Cart)=  0.00000000 RMS(Int)=  0.00000000
 ClnCor:  largest displacement from symmetrization is 6.86D-09 for atom     1.
 Variable       Old X    -DE/DX   Delta X   Delta X   Delta X     New X
                                 (Linear)    (Quad)   (Total)
    R1        2.32730  -0.00037   0.00000  -0.00048  -0.00048   2.32682
    R2        2.32730  -0.00037   0.00000  -0.00048  -0.00048   2.32682
    R3        2.32730  -0.00037   0.00000  -0.00048  -0.00048   2.32682
    A1        2.09440   0.00000   0.00000   0.00000   0.00000   2.09440
    A2        2.09440   0.00000   0.00000   0.00000   0.00000   2.09440
    A3        2.09440  -0.00000   0.00000  -0.00000   0.00000   2.09440
    D1        3.14159  -0.00000   0.00000   0.00000   0.00000   3.14159
         Item               Value     Threshold  Converged?
 Maximum Force            0.000370     0.000450     YES
 RMS     Force            0.000242     0.000300     YES
 Maximum Displacement     0.000479     0.001800     YES
 RMS     Displacement     0.000314     0.001200     YES
 Predicted change in Energy=-2.660159D-07
 Optimization completed.
    -- Stationary point found.
                           ----------------------------
                           !   Optimized Parameters   !
                           ! (Angstroms and Degrees)  !
 --------------------------                            --------------------------
 ! Name  Definition              Value          Derivative Info.                !
 --------------------------------------------------------------------------------
 ! R1    R(1,2)                  1.2316         -DE/DX =   -0.0004              !
 ! R2    R(1,3)                  1.2316         -DE/DX =   -0.0004              !
 ! R3    R(1,4)                  1.2316         -DE/DX =   -0.0004              !
 ! A1    A(2,1,3)              120.0            -DE/DX =    0.0                 !
 ! A2    A(2,1,4)              120.0            -DE/DX =    0.0                 !
 ! A3    A(3,1,4)              120.0            -DE/DX =    0.0                 !
 ! D1    D(2,1,4,3)            180.0            -DE/DX =    0.0                 !
 --------------------------------------------------------------------------------
 GradGradGradGradGradGradGradGradGradGradGradGradGradGradGradGradGradGrad

 Dipole is zero, so no output in dipole orientation.

 ----------------------------------------------------------------------

 Electric dipole moment (input orientation):
 (Debye = 10**-18 statcoulomb cm , SI units = C m)
                  (au)            (Debye)         (10**-30 SI)
   Tot        0.000000D+00      0.000000D+00      0.000000D+00
   x          0.000000D+00      0.000000D+00      0.000000D+00
   y          0.000000D+00      0.000000D+00      0.000000D+00
   z          0.000000D+00      0.000000D+00      0.000000D+00

 Dipole polarizability, Alpha (input orientation).
 (esu units = cm**3 , SI units = C**2 m**2 J**-1)
 Alpha(0;0):
               (au)            (10**-24 esu)      (10**-40 SI)
   iso        0.257465D+02      0.381524D+01      0.424503D+01
   aniso      0.207093D+02      0.306880D+01      0.341450D+01
   xx         0.326491D+02      0.483809D+01      0.538310D+01
   yx         0.000000D+00      0.000000D+00      0.000000D+00
   yy         0.326501D+02      0.483825D+01      0.538328D+01
   zx         0.000000D+00      0.000000D+00      0.000000D+00
   zy         0.000000D+00      0.000000D+00      0.000000D+00
   zz         0.119403D+02      0.176938D+01      0.196870D+01

 ----------------------------------------------------------------------
 1\1\GINC-GAMBA\Freq\UB3LYP\Gen\N1O3(2)\IRIKURA\16-Jun-2022\0\\#N Geom=
 AllCheck Guess=TCheck SCRF=Check GenChk UB3LYP/ChkBas Freq\\nitroxyl, 
 B3LYP/pcseg-2\\0,2\N,0.,0.,0.\O,0.0000004912,1.2315530101,0.\O,1.06655
 59473,-0.6157769304,0.\O,-1.0665564384,-0.6157760797,0.\\Version=ES64L
 -G16RevB.01\State=2-A2'\HF=-280.3413556\S2=0.756399\S2-1=0.\S2A=0.7500
 29\RMSD=2.902e-09\RMSF=1.851e-04\ZeroPoint=0.0104771\Thermal=0.0144906
 \Dipole=0.,0.,0.\DipoleDeriv=-0.2582173,0.,0.,0.,-0.2585243,0.,0.,0.,0
 .3578785,0.3397685,-0.0000002,0.,-0.0000002,-0.1675234,0.,0.,0.,-0.119
 2924,-0.0407378,0.2196856,0.,0.219687,0.2129845,0.,0.,0.,-0.1192927,-0
 .0407382,-0.2196854,0.,-0.2196868,0.2129849,0.,0.,0.,-0.1192927\Polar=
 32.6490676,0.,32.6501445,0.,0.,11.9403486\Quadrupole=-0.6851351,-0.685
 1351,1.3702702,0.,0.,0.\PG=D03H [O(N1),3C2(O1)]\NImag=0\\0.25970059,0.
 ,0.25958746,0.,0.,0.26594205,0.08075685,-0.00000013,0.,0.04554710,-0.0
 0000013,-0.25385412,0.,0.00000019,0.52621741,0.,0.,-0.08864746,0.,0.,0
 .02966075,-0.17021493,0.14489990,0.,-0.06315706,0.06379915,0.,0.406049
 66,0.14489925,-0.00288140,0.,0.06267410,-0.13617656,0.,-0.20813644,0.1
 6571484,0.,0.,-0.08864738,0.,0.,0.02949335,0.,0.,0.02966075,-0.1702151
 6,-0.14489977,0.,-0.06315716,-0.06379920,0.,-0.17268621,0.00056258,0.,
 0.40605000,-0.14489911,-0.00288117,0.,-0.06267416,-0.13617646,0.,-0.00
 056246,-0.02664741,0.,0.20813625,0.16571451,0.,0.,-0.08864738,0.,0.,0.
 02949335,0.,0.,0.02949335,0.,0.,0.02966075\\0.,0.,0.,0.,0.00037023,0.,
 0.00032063,-0.00018511,0.,-0.00032063,-0.00018511,0.\\\@


 There are more things in heaven and earth, Horatio,
 than are dreamt of in your philosophy.
                   -- Hamlet, Act I, Scene 5
 Job cpu time:       0 days  0 hours  2 minutes 42.1 seconds.
 Elapsed time:       0 days  0 hours  0 minutes 13.5 seconds.
 File lengths (MBytes):  RWF=     16 Int=      0 D2E=      0 Chk=      3 Scr=      1
 Normal termination of Gaussian 16 at Thu Jun 16 17:20:58 2022.
