 Entering Gaussian System, Link 0=g16
 AtFile(1): pcseg2.gbs
            -H     0
            S   4   1.00
                  0.754732D+02           0.427821D-02
                  0.113575D+02           0.328672D-01
                  0.260081D+01           0.159578D+00
                  0.735503D+00           0.500000D+00
            S   1   1.00
                  0.231761D+00           1.0000000
            S   1   1.00
                  0.741675D-01           1.0000000
            P   1   1.00
                  0.160000D+01           1.0000000
            P   1   1.00
                  0.450000D+00           1.0000000
            D   1   1.00
                  0.125000D+01           1.0000000
            ****
            -C     0
            S   7   1.00
                  0.731999D+04           0.695369D-03
                  0.109818D+04           0.537138D-02
                  0.250014D+03           0.274734D-01
                  0.707586D+02           0.105078D+00
                  0.228595D+02           0.291262D+00
                  0.803936D+01           0.500000D+00
                  0.289309D+01           0.362224D+00
            S   2   1.00
                  0.521640D+01          -0.957844D-01
                  0.556124D+00           0.500000D+00
            S   1   1.00
                  0.228813D+00           1.0000000
            S   1   1.00
                  0.936338D-01           1.0000000
            P   4   1.00
                  0.339855D+02           0.818395D-02
                  0.772957D+01           0.586921D-01
                  0.224954D+01           0.222514D+00
                  0.767681D+00           0.500000D+00
            P   1   1.00
                  0.263283D+00           1.0000000
            P   1   1.00
                  0.848744D-01           1.0000000
            D   1   1.00
                  0.140000D+01           1.0000000
            D   1   1.00
                  0.450000D+00           1.0000000
            F   1   1.00
                  0.950000D+00           1.0000000
            ****
            -O     0
            S   7   1.00
                  0.135887D+05           0.665492D-03
                  0.203847D+04           0.514222D-02
                  0.464041D+03           0.263472D-01
                  0.131339D+03           0.101500D+00
                  0.425340D+02           0.285877D+00
                  0.150429D+02           0.500000D+00
                  0.546616D+01           0.368211D+00
            S   2   1.00
                  0.100915D+02          -0.100084D+00
                  0.110429D+01           0.500000D+00
            S   1   1.00
                  0.448082D+00           1.0000000
            S   1   1.00
                  0.175325D+00           1.0000000
            P   4   1.00
                  0.608220D+02           0.908253D-02
                  0.140332D+02           0.645878D-01
                  0.418244D+01           0.241502D+00
                  0.142490D+01           0.500000D+00
            P   1   1.00
                  0.478741D+00           1.0000000
            P   1   1.00
                  0.146257D+00           1.0000000
            D   1   1.00
                  0.220000D+01           1.0000000
            D   1   1.00
                  0.650000D+00           1.0000000
            F   1   1.00
                  0.110000D+01           1.0000000
            ****
            -N     0
            S   7   1.00
                  0.101643D+05           0.682757D-03
                  0.152481D+04           0.527488D-02
                  0.347119D+03           0.270037D-01
                  0.982389D+02           0.103673D+00
                  0.317799D+02           0.289575D+00
                  0.112240D+02           0.500000D+00
                  0.406611D+01           0.364621D+00
            S   2   1.00
                  0.747898D+01          -0.975681D-01
                  0.805040D+00           0.500000D+00
            S   1   1.00
                  0.324626D+00           1.0000000
            S   1   1.00
                  0.128132D+00           1.0000000
            P   4   1.00
                  0.482704D+02           0.829547D-02
                  0.110815D+02           0.596223D-01
                  0.326643D+01           0.227889D+00
                  0.111680D+01           0.500000D+00
            P   1   1.00
                  0.382049D+00           1.0000000
            P   1   1.00
                  0.121222D+00           1.0000000
            D   1   1.00
                  0.180000D+01           1.0000000
            D   1   1.00
                  0.550000D+00           1.0000000
            F   1   1.00
                  0.102000D+01           1.0000000
            ****
            -F     0
            S   7   1.00
                  0.174507D+05           0.655972D-03
                  0.261768D+04           0.506944D-02
                  0.595857D+03           0.259899D-01
                  0.168651D+03           0.100353D+00
                  0.546654D+02           0.284095D+00
                  0.193717D+02           0.500000D+00
                  0.706202D+01           0.370721D+00
            S   2   1.00
                  0.131197D+02          -0.101997D+00
                  0.145046D+01           0.500000D+00
            S   1   1.00
                  0.588255D+00           1.0000000
            S   1   1.00
                  0.227960D+00           1.0000000
            P   4   1.00
                  0.779407D+02           0.931135D-02
                  0.180425D+02           0.663964D-01
                  0.542342D+01           0.246386D+00
                  0.184876D+01           0.500000D+00
            P   1   1.00
                  0.617455D+00           1.0000000
            P   1   1.00
                  0.185496D+00           1.0000000
            D   1   1.00
                  0.280000D+01           1.0000000
            D   1   1.00
                  0.800000D+00           1.0000000
            F   1   1.00
                  0.120000D+01           1.0000000
            ****
            -Cl     0
            S   8   1.00
                  0.154272D+06           0.222473D-03
                  0.231232D+05           0.172590D-02
                  0.526257D+04           0.899286D-02
                  0.148995D+04           0.367724D-01
                  0.485417D+03           0.121446D+00
                  0.174634D+03           0.304148D+00
                  0.672393D+02           0.500000D+00
                  0.265780D+02           0.360252D+00
            S   3   1.00
                  0.131826D+03          -0.531330D-01
                  0.400703D+02          -0.233346D+00
                  0.789448D+01           0.500000D+00
            S   2   1.00
                  0.427711D+01           0.500000D+00
                  0.196233D+01           0.370517D+00
            S   1   1.00
                  0.520793D+00           1.0000000
            S   1   1.00
                  0.181633D+00           1.0000000
            P   7   1.00
                  0.124440D+04           0.988206D-03
                  0.295109D+03           0.829674D-02
                  0.947224D+02           0.430906D-01
                  0.352588D+02           0.148443D+00
                  0.144211D+02           0.344744D+00
                  0.610371D+01           0.500000D+00
                  0.258886D+01           0.348278D+00
            P   2   1.00
                  0.109447D+02          -0.196768D-01
                  0.104413D+01           0.500000D+00
            P   1   1.00
                  0.376184D+00           1.0000000
            P   1   1.00
                  0.120613D+00           1.0000000
            D   1   1.00
                  0.231000D+01           1.0000000
            D   1   1.00
                  0.520000D+00           1.0000000
            F   1   1.00
                  0.720000D+00           1.0000000
            ****
            -S     0
            S   8   1.00
                  0.134700D+06           0.226231D-03
                  0.201904D+05           0.175488D-02
                  0.459528D+04           0.914190D-02
                  0.130109D+04           0.373551D-01
                  0.423902D+03           0.123121D+00
                  0.152485D+03           0.306801D+00
                  0.586925D+02           0.500000D+00
                  0.231461D+02           0.354358D+00
            S   3   1.00
                  0.116327D+03          -0.491772D-01
                  0.352841D+02          -0.215962D+00
                  0.677831D+01           0.500000D+00
            S   2   1.00
                  0.360404D+01           0.500000D+00
                  0.164871D+01           0.366278D+00
            S   1   1.00
                  0.421821D+00           1.0000000
            S   1   1.00
                  0.147554D+00           1.0000000
            P   7   1.00
                  0.104863D+04           0.105273D-02
                  0.248717D+03           0.879338D-02
                  0.797887D+02           0.453358D-01
                  0.296023D+02           0.154476D+00
                  0.120627D+02           0.352366D+00
                  0.507628D+01           0.500000D+00
                  0.213375D+01           0.346429D+00
            P   2   1.00
                  0.928958D+01          -0.185932D-01
                  0.837819D+00           0.500000D+00
            P   1   1.00
                  0.301495D+00           1.0000000
            P   1   1.00
                  0.974740D-01           1.0000000
            D   1   1.00
                  0.210000D+01           1.0000000
            D   1   1.00
                  0.480000D+00           1.0000000
            F   1   1.00
                  0.660000D+00           1.0000000
            ****
            -Br     0
            S    10   1.00
                  0.233625D+07           0.532336D-04
                  0.349961D+06           0.413715D-03
                  0.796444D+05           0.217123D-02
                  0.225555D+05           0.910109D-02
                  0.735546D+04           0.323789D-01
                  0.265352D+04           0.988755D-01
                  0.103517D+04           0.248138D+00
                  0.422205D+03           0.474328D+00
                  0.180035D+03           0.500000D+00
                  0.793308D+02           0.187769D+00
            S    4   1.00
                  0.620834D+03          -0.226511D-01
                  0.190829D+03          -0.109497D+00
                  0.312505D+02           0.500000D+00
                  0.135270D+02           0.492812D+00
            S    2   1.00
                  0.216097D+02          -0.165418D+00
                  0.372566D+01           0.500000D+00
            S    1   1.00
                  0.169770D+01           1.0000000
            S    1   1.00
                  0.489332D+00           1.0000000
            S    1   1.00
                  0.175712D+00           1.0000000
            P    8   1.00
                  0.960829D+04           0.478974D-03
                  0.227618D+04           0.417853D-02
                  0.736723D+03           0.229315D-01
                  0.281579D+03           0.892653D-01
                  0.118395D+03           0.255288D+00
                  0.527481D+02           0.479074D+00
                  0.245098D+02           0.500000D+00
                  0.112009D+02           0.200944D+00
            P    4   1.00
                  0.587849D+02          -0.189674D-01
                  0.918962D+01           0.264104D+00
                  0.413895D+01           0.500000D+00
                  0.184225D+01           0.319316D+00
            P    1   1.00
                  0.713862D+00           1.0000000
            P    1   1.00
                  0.274232D+00           1.0000000
            P    1   1.00
                  0.944411D-01           1.0000000
            D    7   1.00
                  0.398470D+03           0.204066D-02
                  0.118967D+03           0.175171D-01
                  0.450197D+02           0.829708D-01
                  0.190320D+02           0.236284D+00
                  0.855686D+01           0.428468D+00
                  0.382950D+01           0.500000D+00
                  0.166291D+01           0.349360D+00
            D    1   1.00
                  0.672953D+00           1.0000000
            D    1   1.00
                  0.252000D+00           1.0000000
            F    1   1.00
                  0.530000D+00           1.0000000
            ****
            -Si     0
            S    8   1.00
                  0.996133D+05           0.235546D-03
                  0.149311D+05           0.182707D-02
                  0.339820D+04           0.951425D-02
                  0.962140D+03           0.388172D-01
                  0.313430D+03           0.127328D+00
                  0.112683D+03           0.313522D+00
                  0.433372D+02           0.500000D+00
                  0.170029D+02           0.340347D+00
            S    3   1.00
                  0.884208D+02          -0.404451D-01
                  0.266756D+02          -0.178059D+00
                  0.479640D+01           0.500000D+00
            S    2   1.00
                  0.239385D+01           0.500000D+00
                  0.108333D+01           0.338016D+00
            S    1   1.00
                  0.252420D+00           1.0000000
            S    1   1.00
                  0.891210D-01           1.0000000
            P    7   1.00
                  0.709901D+03           0.123028D-02
                  0.168426D+03           0.101366D-01
                  0.539946D+02           0.511840D-01
                  0.198646D+02           0.169967D+00
                  0.801369D+01           0.370717D+00
                  0.331870D+01           0.500000D+00
                  0.136112D+01           0.344128D+00
            P    2   1.00
                  0.622158D+01          -0.166609D-01
                  0.503049D+00           0.500000D+00
            P    1   1.00
                  0.179848D+00           1.0000000
            P    1   1.00
                  0.591912D-01           1.0000000
            D    1   1.00
                  0.168000D+01           1.0000000
            D    1   1.00
                  0.380000D+00           1.0000000
            F    1   1.00
                  0.540000D+00           1.0000000
            ****
            -P     0
            S    8   1.00
                  0.116416D+06           0.230715D-03
                  0.174500D+05           0.178960D-02
                  0.397149D+04           0.932116D-02
                  0.112447D+04           0.380591D-01
                  0.366347D+03           0.125148D+00
                  0.131757D+03           0.310022D+00
                  0.506988D+02           0.500000D+00
                  0.199436D+02           0.347528D+00
            S    3   1.00
                  0.101878D+03          -0.446755D-01
                  0.308249D+02          -0.196376D+00
                  0.573688D+01           0.500000D+00
            S    2   1.00
                  0.296868D+01           0.500000D+00
                  0.135315D+01           0.355098D+00
            S    1   1.00
                  0.332196D+00           1.0000000
            S    1   1.00
                  0.116229D+00           1.0000000
            P    7   1.00
                  0.873928D+03           0.112375D-02
                  0.207298D+03           0.933330D-02
                  0.664628D+02           0.477213D-01
                  0.245665D+02           0.160733D+00
                  0.996820D+01           0.359760D+00
                  0.416536D+01           0.500000D+00
                  0.173022D+01           0.346593D+00
            P    2   1.00
                  0.772530D+01          -0.175718D-01
                  0.657252D+00           0.500000D+00
            P    1   1.00
                  0.239903D+00           1.0000000
            P    1   1.00
                  0.800988D-01           1.0000000
            D    1   1.00
                  0.189000D+01           1.0000000
            D    1   1.00
                  0.430000D+00           1.0000000
            F    1   1.00
                  0.600000D+00           1.0000000
            ****
            
 Initial command:
 /usr/local/apps/g16_b01_avx/g16/l1.exe "/wrk/irikura/Gau-491816.inp" -scrdir="/wrk/irikura/"
 Entering Link 1 = /usr/local/apps/g16_b01_avx/g16/l1.exe PID=    491818.
  
 Copyright (c) 1988-2017, Gaussian, Inc.  All Rights Reserved.
  
 This is part of the Gaussian(R) 16 program.  It is based on
 the Gaussian(R) 09 system (copyright 2009, Gaussian, Inc.),
 the Gaussian(R) 03 system (copyright 2003, Gaussian, Inc.),
 the Gaussian(R) 98 system (copyright 1998, Gaussian, Inc.),
 the Gaussian(R) 94 system (copyright 1995, Gaussian, Inc.),
 the Gaussian 92(TM) system (copyright 1992, Gaussian, Inc.),
 the Gaussian 90(TM) system (copyright 1990, Gaussian, Inc.),
 the Gaussian 88(TM) system (copyright 1988, Gaussian, Inc.),
 the Gaussian 86(TM) system (copyright 1986, Carnegie Mellon
 University), and the Gaussian 82(TM) system (copyright 1983,
 Carnegie Mellon University). Gaussian is a federally registered
 trademark of Gaussian, Inc.
  
 This software contains proprietary and confidential information,
 including trade secrets, belonging to Gaussian, Inc.
  
 This software is provided under written license and may be
 used, copied, transmitted, or stored only in accord with that
 written license.
  
 The following legend is applicable only to US Government
 contracts under FAR:
  
                    RESTRICTED RIGHTS LEGEND
  
 Use, reproduction and disclosure by the US Government is
 subject to restrictions as set forth in subparagraphs (a)
 and (c) of the Commercial Computer Software - Restricted
 Rights clause in FAR 52.227-19.
  
 Gaussian, Inc.
 340 Quinnipiac St., Bldg. 40, Wallingford CT 06492
  
  
 ---------------------------------------------------------------
 Warning -- This program may not be used in any manner that
 competes with the business of Gaussian, Inc. or will provide
 assistance to any competitor of Gaussian, Inc.  The licensee
 of this program is prohibited from giving any competitor of
 Gaussian, Inc. access to this program.  By using this program,
 the user acknowledges that Gaussian, Inc. is engaged in the
 business of creating and licensing software in the field of
 computational chemistry and represents and warrants to the
 licensee that it is not a competitor of Gaussian, Inc. and that
 it will not use this program in any manner prohibited above.
 ---------------------------------------------------------------
  

 Cite this work as:
 Gaussian 16, Revision B.01,
 M. J. Frisch, G. W. Trucks, H. B. Schlegel, G. E. Scuseria, 
 M. A. Robb, J. R. Cheeseman, G. Scalmani, V. Barone, 
 G. A. Petersson, H. Nakatsuji, X. Li, M. Caricato, A. V. Marenich, 
 J. Bloino, B. G. Janesko, R. Gomperts, B. Mennucci, H. P. Hratchian, 
 J. V. Ortiz, A. F. Izmaylov, J. L. Sonnenberg, D. Williams-Young, 
 F. Ding, F. Lipparini, F. Egidi, J. Goings, B. Peng, A. Petrone, 
 T. Henderson, D. Ranasinghe, V. G. Zakrzewski, J. Gao, N. Rega, 
 G. Zheng, W. Liang, M. Hada, M. Ehara, K. Toyota, R. Fukuda, 
 J. Hasegawa, M. Ishida, T. Nakajima, Y. Honda, O. Kitao, H. Nakai, 
 T. Vreven, K. Throssell, J. A. Montgomery, Jr., J. E. Peralta, 
 F. Ogliaro, M. J. Bearpark, J. J. Heyd, E. N. Brothers, K. N. Kudin, 
 V. N. Staroverov, T. A. Keith, R. Kobayashi, J. Normand, 
 K. Raghavachari, A. P. Rendell, J. C. Burant, S. S. Iyengar, 
 J. Tomasi, M. Cossi, J. M. Millam, M. Klene, C. Adamo, R. Cammi, 
 J. W. Ochterski, R. L. Martin, K. Morokuma, O. Farkas, 
 J. B. Foresman, and D. J. Fox, Gaussian, Inc., Wallingford CT, 2016.
 
 ******************************************
 Gaussian 16:  ES64L-G16RevB.01 20-Dec-2017
                 1-Oct-2023 
 ******************************************
 %chk=no3.chk
 %mem=500mw
 %nprocs=4
 Will use up to    4 processors via shared memory.
 ---------------------------------------
 # b3lyp/gen opt freq CPHF(Grid=OneStep)
 ---------------------------------------
 1/18=20,19=15,26=3,38=1/1,3;
 2/9=110,12=2,17=6,18=5,40=1/2;
 3/5=7,11=2,25=1,30=1,71=1,74=-5/1,2,3;
 4//1;
 5/5=2,38=5/2;
 6/7=2,8=2,9=2,10=2,28=1/1;
 7//1,2,3,16;
 1/18=20,19=15,26=3/3(2);
 2/9=110/2;
 99//99;
 2/9=110/2;
 3/5=7,6=1,11=2,25=1,30=1,71=1,74=-5,82=7/1,2,3;
 4/5=5,16=3,69=1/1;
 5/5=2,38=5/2;
 7//1,2,3,16;
 1/18=20,19=15,26=3/3(-5);
 2/9=110/2;
 6/7=2,8=2,9=2,10=2,19=2,28=1/1;
 99/9=1/99;
 -----------------------
 nitroxyl, B3LYP/pcseg-2
 -----------------------
 Symbolic Z-matrix:
 Charge =  0 Multiplicity = 2
 N                     0.        0.        0. 
 O                     0.        1.23155   0. 
 O                     1.06656  -0.61578   0. 
 O                    -1.06656  -0.61578   0. 
 

 GradGradGradGradGradGradGradGradGradGradGradGradGradGradGradGradGradGrad
 Berny optimization.
 Initialization pass.
                           ----------------------------
                           !    Initial Parameters    !
                           ! (Angstroms and Degrees)  !
 --------------------------                            --------------------------
 ! Name  Definition              Value          Derivative Info.                !
 --------------------------------------------------------------------------------
 ! R1    R(1,2)                  1.2316         estimate D2E/DX2                !
 ! R2    R(1,3)                  1.2316         estimate D2E/DX2                !
 ! R3    R(1,4)                  1.2316         estimate D2E/DX2                !
 ! A1    A(2,1,3)              120.0            estimate D2E/DX2                !
 ! A2    A(2,1,4)              120.0            estimate D2E/DX2                !
 ! A3    A(3,1,4)              120.0            estimate D2E/DX2                !
 ! D1    D(2,1,4,3)            180.0            estimate D2E/DX2                !
 --------------------------------------------------------------------------------
 Trust Radius=3.00D-01 FncErr=1.00D-07 GrdErr=1.00D-06 EigMax=2.50D+02 EigMin=1.00D-04
 Number of steps in this run=     20 maximum allowed number of steps=    100.
 GradGradGradGradGradGradGradGradGradGradGradGradGradGradGradGradGradGrad

                          Input orientation:                          
 ---------------------------------------------------------------------
 Center     Atomic      Atomic             Coordinates (Angstroms)
 Number     Number       Type             X           Y           Z
 ---------------------------------------------------------------------
      1          7           0        0.000000    0.000000    0.000000
      2          8           0        0.000000    1.231553    0.000000
      3          8           0        1.066556   -0.615777    0.000000
      4          8           0       -1.066556   -0.615777    0.000000
 ---------------------------------------------------------------------
                    Distance matrix (angstroms):
                    1          2          3          4
     1  N    0.000000
     2  O    1.231553   0.000000
     3  O    1.231553   2.133113   0.000000
     4  O    1.231553   2.133113   2.133112   0.000000
 Stoichiometry    NO3(2)
 Framework group  D3H[O(N),3C2(O)]
 Deg. of freedom     1
 Full point group                 D3H     NOp  12
 Largest Abelian subgroup         C2V     NOp   4
 Largest concise Abelian subgroup C2      NOp   2
                         Standard orientation:                         
 ---------------------------------------------------------------------
 Center     Atomic      Atomic             Coordinates (Angstroms)
 Number     Number       Type             X           Y           Z
 ---------------------------------------------------------------------
      1          7           0       -0.000000    0.000000   -0.000000
      2          8           0        0.000000    1.231553    0.000000
      3          8           0       -1.066556   -0.615777    0.000000
      4          8           0        1.066556   -0.615777    0.000000
 ---------------------------------------------------------------------
 Rotational constants (GHZ):          13.8879332          13.8879332           6.9439666
 General basis read from cards:  (5D, 7F)
 There are    56 symmetry adapted cartesian basis functions of A1  symmetry.
 There are    17 symmetry adapted cartesian basis functions of A2  symmetry.
 There are    40 symmetry adapted cartesian basis functions of B1  symmetry.
 There are    27 symmetry adapted cartesian basis functions of B2  symmetry.
 There are    46 symmetry adapted basis functions of A1  symmetry.
 There are    16 symmetry adapted basis functions of A2  symmetry.
 There are    34 symmetry adapted basis functions of B1  symmetry.
 There are    24 symmetry adapted basis functions of B2  symmetry.
   120 basis functions,   204 primitive gaussians,   140 cartesian basis functions
    16 alpha electrons       15 beta electrons
       nuclear repulsion energy       119.8175772437 Hartrees.
 NAtoms=    4 NActive=    4 NUniq=    2 SFac= 4.00D+00 NAtFMM=   60 NAOKFM=F Big=F
 Integral buffers will be    131072 words long.
 Raffenetti 2 integral format.
 Two-electron integral symmetry is turned on.
 One-electron integrals computed using PRISM.
 NBasis=   120 RedAO= T EigKep=  9.86D-04  NBF=    46    16    34    24
 NBsUse=   120 1.00D-06 EigRej= -1.00D+00 NBFU=    46    16    34    24
 ExpMin= 1.21D-01 ExpMax= 1.36D+04 ExpMxC= 4.64D+02 IAcc=3 IRadAn=         5 AccDes= 0.00D+00
 Harris functional with IExCor=  402 and IRadAn=       5 diagonalized for initial guess.
 HarFok:  IExCor=  402 AccDes= 0.00D+00 IRadAn=         5 IDoV= 1 UseB2=F ITyADJ=14
 ICtDFT=  3500011 ScaDFX=  1.000000  1.000000  1.000000  1.000000
 FoFCou: FMM=F IPFlag=           0 FMFlag=      100000 FMFlg1=           0
         NFxFlg=           0 DoJE=T BraDBF=F KetDBF=T FulRan=T
         wScrn=  0.000000 ICntrl=       500 IOpCl=  0 I1Cent=   200000004 NGrid=           0
         NMat0=    1 NMatS0=      1 NMatT0=    0 NMatD0=    1 NMtDS0=    0 NMtDT0=    0
 Petite list used in FoFCou.
 Initial guess orbital symmetries:
 Alpha Orbitals:
       Occupied  (E') (E') (A1') (A1') (A1') (E') (E') (A1') (E')
                 (E') (A2") (E') (E') (E") (E") (A2')
       Virtual   (A2") (A1') (E') (E') (A1') (A2") (E') (E') (A1')
                 (E") (E") (E') (E') (A2') (E') (E') (A2") (A1')
                 (E') (E') (E") (E") (E') (E') (A1') (E") (E")
                 (A1") (E') (E') (A2") (A1') (A2') (E') (E') (A1')
                 (A2") (E') (E') (E") (E") (A2') (E') (E') (E")
                 (E") (A2") (A1') (A1') (E') (E') (E') (E') (E")
                 (E") (E') (E') (A2") (A2') (E") (E") (E') (E')
                 (A2') (A1") (A1') (A2") (E') (E') (A1') (E") (E")
                 (E') (E') (A1') (E") (E") (E') (E') (A2") (E")
                 (E") (A1') (E') (E') (A1") (E") (E") (A1') (A2')
                 (E') (E') (E") (E") (A2") (E') (E') (E') (E')
                 (A2') (A1') (E') (E') (A1')
 Beta  Orbitals:
       Occupied  (E') (E') (A1') (A1') (A1') (E') (E') (A1') (E')
                 (E') (A2") (E') (E') (E") (E")
       Virtual   (A2') (A2") (A1') (E') (E') (A1') (A2") (E') (E')
                 (A1') (E") (E") (E') (E') (A2') (E') (E') (A2")
                 (A1') (E') (E') (E") (E") (E') (E') (A1') (E")
                 (E") (A1") (E') (E') (A2") (A1') (A2') (E') (E')
                 (A1') (A2") (E') (E') (E") (E") (A2') (E') (E')
                 (E") (E") (A2") (A1') (A1') (E') (E') (E') (E')
                 (E") (E") (E') (E') (A2") (A2') (E") (E") (E')
                 (E') (A2') (A1") (A1') (A2") (E') (E') (A1') (E")
                 (E") (E') (E') (A1') (E") (E") (E') (E') (A2")
                 (E") (E") (A1') (E') (E') (A1") (E") (E") (A1')
                 (A2') (E') (E') (E") (E") (A2") (E') (E') (E')
                 (E') (A2') (A1') (E') (E') (A1')
 The electronic state of the initial guess is 2-A2'.
 Initial guess <Sx>= 0.0000 <Sy>= 0.0000 <Sz>= 0.5000 <S**2>= 0.7500 S= 0.5000
 Keep R1 and R2 ints in memory in symmetry-blocked form, NReq=33070735.
 Requested convergence on RMS density matrix=1.00D-08 within 128 cycles.
 Requested convergence on MAX density matrix=1.00D-06.
 Requested convergence on             energy=1.00D-06.
 No special actions if energy rises.
 Integral accuracy reduced to 1.0D-05 until final iterations.
 Initial convergence to 1.0D-05 achieved.  Increase integral accuracy.
 SCF Done:  E(UB3LYP) =  -280.341355596     A.U. after   12 cycles
            NFock= 12  Conv=0.11D-08     -V/T= 2.0027
 <Sx>= 0.0000 <Sy>= 0.0000 <Sz>= 0.5000 <S**2>= 0.7564 S= 0.5032
 <L.S>=  0.00000000000    
 Annihilation of the first spin contaminant:
 S**2 before annihilation     0.7564,   after     0.7500

 **********************************************************************

            Population analysis using the SCF Density.

 **********************************************************************

 Orbital symmetries:
 Alpha Orbitals:
       Occupied  (E') (E') (A1') (A1') (A1') (E') (E') (A1') (A2")
                 (E') (E') (E') (E') (E") (E") (A2')
       Virtual   (A2") (A1') (E') (E') (A1') (A2") (E') (E') (A1')
                 (E") (E") (E') (E') (E') (E') (A2') (A2") (A1')
                 (E') (E') (E") (E") (E') (E') (A1') (E") (E")
                 (A1") (E') (E') (A2") (A1') (A2') (E') (E') (A2")
                 (A1') (E') (E') (E") (E") (A2') (E') (E') (A1')
                 (E") (E") (A2") (A1') (E') (E') (E') (E') (E")
                 (E") (E') (E') (A2") (A2') (E") (E") (E') (E')
                 (A2') (A1") (A1') (A2") (E') (E') (A1') (E') (E')
                 (E") (E") (A1') (E") (E") (E') (E') (A2") (E")
                 (E") (A1') (E') (E') (A1") (E") (E") (A1') (E')
                 (E') (A2') (E") (E") (A2") (E') (E') (A2') (E')
                 (E') (A1') (E') (E') (A1')
 Beta  Orbitals:
       Occupied  (E') (E') (A1') (A1') (A1') (E') (E') (A1') (A2")
                 (E') (E') (E") (E") (E') (E')
       Virtual   (A2') (A2") (A1') (E') (E') (A1') (A2") (E') (E')
                 (A1') (E") (E") (E') (E') (E') (E') (A2') (A2")
                 (A1') (E') (E') (E") (E") (E') (E') (A1') (E")
                 (E") (A1") (E') (E') (A2") (A1') (A2') (E') (E')
                 (A2") (A1') (E') (E') (E") (E") (A2') (E') (E')
                 (A1') (E") (E") (A2") (A1') (E') (E') (E') (E')
                 (E") (E") (E') (E') (A2") (A2') (E") (E") (A1')
                 (E') (E') (A1") (A2') (A2") (E') (E') (A1') (E')
                 (E') (E") (E") (A1') (E") (E") (E') (E') (A2")
                 (E") (E") (A1') (E') (E') (A1") (E") (E") (A1')
                 (E') (E') (A2') (E") (E") (A2") (E') (E') (A2')
                 (E') (E') (A1') (E') (E') (A1')
 The electronic state is 2-A2'.
 Alpha  occ. eigenvalues --  -19.26058 -19.26058 -19.26056 -14.66767  -1.36557
 Alpha  occ. eigenvalues --   -1.14843  -1.14843  -0.69823  -0.64331  -0.62161
 Alpha  occ. eigenvalues --   -0.62161  -0.44748  -0.44748  -0.40415  -0.40415
 Alpha  occ. eigenvalues --   -0.38399
 Alpha virt. eigenvalues --   -0.11385   0.07074   0.17635   0.17635   0.20506
 Alpha virt. eigenvalues --    0.22701   0.26445   0.26445   0.32950   0.35460
 Alpha virt. eigenvalues --    0.35460   0.38078   0.38078   0.43167   0.43167
 Alpha virt. eigenvalues --    0.43575   0.45231   0.57702   0.84522   0.84522
 Alpha virt. eigenvalues --    0.99886   0.99886   1.22010   1.22010   1.23744
 Alpha virt. eigenvalues --    1.45347   1.45347   1.46431   1.51289   1.51289
 Alpha virt. eigenvalues --    1.58503   1.67386   1.77383   1.84086   1.84086
 Alpha virt. eigenvalues --    1.89941   1.91014   1.97136   1.97136   2.00828
 Alpha virt. eigenvalues --    2.00828   2.24500   2.27981   2.27981   2.39909
 Alpha virt. eigenvalues --    2.40336   2.40336   2.41511   2.71881   2.77335
 Alpha virt. eigenvalues --    2.77335   2.87224   2.87224   3.43201   3.43201
 Alpha virt. eigenvalues --    3.60997   3.60997   3.68775   3.77632   3.90340
 Alpha virt. eigenvalues --    3.90340   3.91591   3.91591   3.91757   3.92098
 Alpha virt. eigenvalues --    3.92251   3.97119   4.27048   4.27048   4.36232
 Alpha virt. eigenvalues --    4.54409   4.54409   4.56463   4.56463   4.97715
 Alpha virt. eigenvalues --    5.07722   5.07722   5.28947   5.28947   5.47930
 Alpha virt. eigenvalues --    5.75215   5.75215   5.85298   5.89931   5.89931
 Alpha virt. eigenvalues --    5.94496   5.96008   5.96008   6.03767   6.18204
 Alpha virt. eigenvalues --    6.18204   6.19136   6.38911   6.38911   6.42560
 Alpha virt. eigenvalues --    6.53617   6.53617   6.74990   6.75716   6.75716
 Alpha virt. eigenvalues --    7.22375   7.32816   7.32816  10.01997
  Beta  occ. eigenvalues --  -19.24977 -19.24977 -19.24977 -14.66870  -1.35499
  Beta  occ. eigenvalues --   -1.12777  -1.12777  -0.68027  -0.64138  -0.60154
  Beta  occ. eigenvalues --   -0.60154  -0.39330  -0.39330  -0.38649  -0.38649
  Beta virt. eigenvalues --   -0.25324  -0.10941   0.07651   0.18280   0.18280
  Beta virt. eigenvalues --    0.20898   0.22860   0.26904   0.26904   0.33181
  Beta virt. eigenvalues --    0.35687   0.35687   0.39915   0.39915   0.43355
  Beta virt. eigenvalues --    0.43355   0.44773   0.45321   0.58082   0.85044
  Beta virt. eigenvalues --    0.85044   1.00149   1.00149   1.23444   1.23444
  Beta virt. eigenvalues --    1.24081   1.46651   1.46651   1.48376   1.52617
  Beta virt. eigenvalues --    1.52617   1.58441   1.68632   1.79428   1.85002
  Beta virt. eigenvalues --    1.85002   1.90221   1.91363   1.99341   1.99341
  Beta virt. eigenvalues --    2.01319   2.01319   2.28626   2.29664   2.29664
  Beta virt. eigenvalues --    2.40484   2.40940   2.40940   2.42061   2.72871
  Beta virt. eigenvalues --    2.78702   2.78702   2.88340   2.88340   3.43637
  Beta virt. eigenvalues --    3.43637   3.62236   3.62236   3.69158   3.79104
  Beta virt. eigenvalues --    3.92269   3.92269   3.93173   3.93372   3.93372
  Beta virt. eigenvalues --    3.93511   3.93698   3.98812   4.27447   4.27447
  Beta virt. eigenvalues --    4.36609   4.56106   4.56106   4.57585   4.57585
  Beta virt. eigenvalues --    4.98629   5.07511   5.07511   5.31148   5.31148
  Beta virt. eigenvalues --    5.47976   5.75539   5.75539   5.88465   5.92815
  Beta virt. eigenvalues --    5.92815   5.98214   5.99306   5.99306   6.05029
  Beta virt. eigenvalues --    6.20098   6.20098   6.21845   6.39609   6.39609
  Beta virt. eigenvalues --    6.43010   6.54035   6.54035   6.76936   6.78162
  Beta virt. eigenvalues --    6.78162   7.23146   7.33527   7.33527  10.02454
          Condensed to atoms (all electrons):
               1          2          3          4
     1  N    5.219346   0.372875   0.372875   0.372875
     2  O    0.372875   8.049293  -0.100746  -0.100746
     3  O    0.372875  -0.100746   8.049293  -0.100746
     4  O    0.372875  -0.100746  -0.100746   8.049293
          Atomic-Atomic Spin Densities.
               1          2          3          4
     1  N   -0.052538  -0.012221  -0.012221  -0.012221
     2  O   -0.012221   0.405417  -0.015064  -0.015064
     3  O   -0.012221  -0.015064   0.405417  -0.015064
     4  O   -0.012221  -0.015064  -0.015064   0.405417
 Mulliken charges and spin densities:
               1          2
     1  N    0.662029  -0.089202
     2  O   -0.220676   0.363067
     3  O   -0.220676   0.363067
     4  O   -0.220676   0.363067
 Sum of Mulliken charges =   0.00000   1.00000
 Mulliken charges and spin densities with hydrogens summed into heavy atoms:
               1          2
     1  N    0.662029  -0.089202
     2  O   -0.220676   0.363067
     3  O   -0.220676   0.363067
     4  O   -0.220676   0.363067
 Electronic spatial extent (au):  <R**2>=            179.0734
 Charge=             -0.0000 electrons
 Dipole moment (field-independent basis, Debye):
    X=              0.0000    Y=              0.0000    Z=             -0.0000  Tot=              0.0000
 Quadrupole moment (field-independent basis, Debye-Ang):
   XX=            -22.9271   YY=            -22.9271   ZZ=            -20.1625
   XY=             -0.0000   XZ=              0.0000   YZ=             -0.0000
 Traceless Quadrupole moment (field-independent basis, Debye-Ang):
   XX=             -0.9215   YY=             -0.9215   ZZ=              1.8431
   XY=             -0.0000   XZ=              0.0000   YZ=             -0.0000
 Octapole moment (field-independent basis, Debye-Ang**2):
  XXX=              0.0000  YYY=             -0.9508  ZZZ=             -0.0000  XYY=              0.0000
  XXY=              0.9508  XXZ=             -0.0000  XZZ=              0.0000  YZZ=              0.0000
  YYZ=             -0.0000  XYZ=             -0.0000
 Hexadecapole moment (field-independent basis, Debye-Ang**3):
 XXXX=            -90.8481 YYYY=            -90.8481 ZZZZ=            -15.5188 XXXY=             -0.0000
 XXXZ=              0.0000 YYYX=              0.0000 YYYZ=             -0.0000 ZZZX=              0.0000
 ZZZY=             -0.0000 XXYY=            -30.2827 XXZZ=            -17.9065 YYZZ=            -17.9065
 XXYZ=              0.0000 YYXZ=              0.0000 ZZXY=              0.0000
 N-N= 1.198175772437D+02 E-N=-9.001291918087D+02  KE= 2.795892910341D+02
 Symmetry A1   KE= 1.882055284670D+02
 Symmetry A2   KE= 5.103702558418D+00
 Symmetry B1   KE= 7.736443758939D+01
 Symmetry B2   KE= 8.915622419275D+00
 Symmetry A1   SP=-1.766911066786D-14
 Symmetry A2   SP= 1.218277323640D-15
 Symmetry B1   SP= 1.000000000000D+00
 Symmetry B2   SP= 1.037310682635D-14
                          Isotropic Fermi Contact Couplings
        Atom                 a.u.       MegaHertz       Gauss      10(-4) cm-1
     1  N(14)             -0.03429     -11.07886      -3.95321      -3.69551
     2  O(17)              0.07608     -46.11779     -16.45597     -15.38324
     3  O(17)              0.07608     -46.11779     -16.45597     -15.38324
     4  O(17)              0.07608     -46.11779     -16.45597     -15.38324
 --------------------------------------------------------
       Center         ----  Spin Dipole Couplings  ----
                      3XX-RR        3YY-RR        3ZZ-RR
 --------------------------------------------------------
     1   Atom        0.044730      0.044730     -0.089460
     2   Atom        1.763651     -0.906415     -0.857236
     3   Atom       -0.238898      1.096135     -0.857236
     4   Atom       -0.238898      1.096135     -0.857236
 --------------------------------------------------------
                        XY            XZ            YZ
 --------------------------------------------------------
     1   Atom        0.000000     -0.000000      0.000000
     2   Atom        0.000000     -0.000000      0.000000
     3   Atom       -1.156173     -0.000000     -0.000000
     4   Atom        1.156173      0.000000     -0.000000
 --------------------------------------------------------


 ---------------------------------------------------------------------------------
              Anisotropic Spin Dipole Couplings in Principal Axis System
 ---------------------------------------------------------------------------------

       Atom             a.u.   MegaHertz   Gauss  10(-4) cm-1        Axes

              Baa    -0.0895    -3.450    -1.231    -1.151  0.0000  0.0000  1.0000
     1 N(14)  Bbb     0.0447     1.725     0.616     0.575 -0.0005  1.0000 -0.0000
              Bcc     0.0447     1.725     0.616     0.575  1.0000  0.0005  0.0000
 
              Baa    -0.9064    65.588    23.403    21.878 -0.0000  1.0000  0.0000
     2 O(17)  Bbb    -0.8572    62.029    22.133    20.691  0.0000  0.0000  1.0000
              Bcc     1.7637  -127.617   -45.537   -42.568  1.0000  0.0000  0.0000
 
              Baa    -0.9064    65.588    23.403    21.878  0.8660  0.5000 -0.0000
     3 O(17)  Bbb    -0.8572    62.029    22.133    20.691  0.0000  0.0000  1.0000
              Bcc     1.7637  -127.617   -45.537   -42.568 -0.5000  0.8660  0.0000
 
              Baa    -0.9064    65.588    23.403    21.878  0.8660 -0.5000  0.0000
     4 O(17)  Bbb    -0.8572    62.029    22.133    20.691  0.0000  0.0000  1.0000
              Bcc     1.7637  -127.617   -45.537   -42.568  0.5000  0.8660 -0.0000
 

 ---------------------------------------------------------------------------------

 Calling FoFJK, ICntrl=      2127 FMM=F ISym2X=1 I1Cent= 0 IOpClX= 1 NMat=1 NMatS=1 NMatT=0.
 ***** Axes restored to original set *****
 -------------------------------------------------------------------
 Center     Atomic                   Forces (Hartrees/Bohr)
 Number     Number              X              Y              Z
 -------------------------------------------------------------------
      1        7           0.000000000   -0.000000000   -0.000000000
      2        8           0.000000000   -0.000370534   -0.000000000
      3        8          -0.000320892    0.000185267    0.000000000
      4        8           0.000320892    0.000185267   -0.000000000
 -------------------------------------------------------------------
 Cartesian Forces:  Max     0.000370534 RMS     0.000185267

 GradGradGradGradGradGradGradGradGradGradGradGradGradGradGradGradGradGrad
 Berny optimization.
 FormGI is forming the generalized inverse of G from B-inverse, IUseBI=4.
 Internal  Forces:  Max     0.000370534 RMS     0.000242572
 Search for a local minimum.
 Step number   1 out of a maximum of   20
 All quantities printed in internal units (Hartrees-Bohrs-Radians)
 Mixed Optimization -- En-DIIS/RFO-DIIS
 Second derivative matrix not updated -- first step.
 The second derivative matrix:
                          R1        R2        R3        A1        A2
           R1           0.90442
           R2           0.00000   0.90442
           R3           0.00000   0.00000   0.90442
           A1           0.00000   0.00000   0.00000   0.25000
           A2           0.00000   0.00000   0.00000   0.00000   0.25000
           A3           0.00000   0.00000   0.00000   0.00000   0.00000
           D1           0.00000   0.00000   0.00000   0.00000   0.00000
                          A3        D1
           A3           0.25000
           D1           0.00000   0.03523
 ITU=  0
     Eigenvalues ---    0.03523   0.25000   0.25000   0.90442   0.90442
     Eigenvalues ---    0.90442
 RFO step:  Lambda=-4.55414491D-07 EMin= 3.52303242D-02
 Linear search not attempted -- first point.
 Iteration  1 RMS(Cart)=  0.00026821 RMS(Int)=  0.00000000
 Iteration  2 RMS(Cart)=  0.00000000 RMS(Int)=  0.00000000
 ClnCor:  largest displacement from symmetrization is 6.69D-13 for atom     4.
 Variable       Old X    -DE/DX   Delta X   Delta X   Delta X     New X
                                 (Linear)    (Quad)   (Total)
    R1        2.32730  -0.00037   0.00000  -0.00041  -0.00041   2.32689
    R2        2.32730  -0.00037   0.00000  -0.00041  -0.00041   2.32689
    R3        2.32730  -0.00037   0.00000  -0.00041  -0.00041   2.32689
    A1        2.09440   0.00000   0.00000   0.00000  -0.00000   2.09440
    A2        2.09440   0.00000   0.00000   0.00000   0.00000   2.09440
    A3        2.09440  -0.00000   0.00000  -0.00000   0.00000   2.09440
    D1        3.14159  -0.00000   0.00000  -0.00000   0.00000   3.14159
         Item               Value     Threshold  Converged?
 Maximum Force            0.000371     0.000450     YES
 RMS     Force            0.000243     0.000300     YES
 Maximum Displacement     0.000410     0.001800     YES
 RMS     Displacement     0.000268     0.001200     YES
 Predicted change in Energy=-2.277072D-07
 Optimization completed.
    -- Stationary point found.
                           ----------------------------
                           !   Optimized Parameters   !
                           ! (Angstroms and Degrees)  !
 --------------------------                            --------------------------
 ! Name  Definition              Value          Derivative Info.                !
 --------------------------------------------------------------------------------
 ! R1    R(1,2)                  1.2316         -DE/DX =   -0.0004              !
 ! R2    R(1,3)                  1.2316         -DE/DX =   -0.0004              !
 ! R3    R(1,4)                  1.2316         -DE/DX =   -0.0004              !
 ! A1    A(2,1,3)              120.0            -DE/DX =    0.0                 !
 ! A2    A(2,1,4)              120.0            -DE/DX =    0.0                 !
 ! A3    A(3,1,4)              120.0            -DE/DX =    0.0                 !
 ! D1    D(2,1,4,3)            180.0            -DE/DX =    0.0                 !
 --------------------------------------------------------------------------------
 GradGradGradGradGradGradGradGradGradGradGradGradGradGradGradGradGradGrad

                          Input orientation:                          
 ---------------------------------------------------------------------
 Center     Atomic      Atomic             Coordinates (Angstroms)
 Number     Number       Type             X           Y           Z
 ---------------------------------------------------------------------
      1          7           0        0.000000   -0.000000    0.000000
      2          8           0       -0.000000    1.231553   -0.000000
      3          8           0        1.066556   -0.615777    0.000000
      4          8           0       -1.066556   -0.615777   -0.000000
 ---------------------------------------------------------------------
                    Distance matrix (angstroms):
                    1          2          3          4
     1  N    0.000000
     2  O    1.231553   0.000000
     3  O    1.231553   2.133113   0.000000
     4  O    1.231553   2.133113   2.133113   0.000000
 Stoichiometry    NO3(2)
 Framework group  D3H[O(N),3C2(O)]
 Deg. of freedom     1
 Full point group                 D3H     NOp  12
 Largest Abelian subgroup         C2V     NOp   4
 Largest concise Abelian subgroup C2      NOp   2
                         Standard orientation:                         
 ---------------------------------------------------------------------
 Center     Atomic      Atomic             Coordinates (Angstroms)
 Number     Number       Type             X           Y           Z
 ---------------------------------------------------------------------
      1          7           0        0.000000    0.000000    0.000000
      2          8           0       -0.000000    1.231553    0.000000
      3          8           0       -1.066556   -0.615777    0.000000
      4          8           0        1.066556   -0.615777    0.000000
 ---------------------------------------------------------------------
 Rotational constants (GHZ):          13.8879332          13.8879332           6.9439666
 1\1\GINC-GAMBA\FOpt\UB3LYP\Gen\N1O3(2)\IRIKURA\01-Oct-2023\0\\# b3lyp/
 gen opt freq CPHF(Grid=OneStep)\\nitroxyl, B3LYP/pcseg-2\\0,2\N,0.,-0.
 0000002581,0.\O,-0.000000106,1.231553,0.\O,1.0665564606,-0.6157767953,
 0.\O,-1.0665563546,-0.6157769789,0.\\Version=ES64L-G16RevB.01\State=2-
 A2'\HF=-280.3413556\S2=0.756399\S2-1=0.\S2A=0.750029\RMSD=1.074e-09\RM
 SF=1.853e-04\Dipole=0.,0.,0.\Quadrupole=-0.6851345,-0.6851345,1.370269
 ,0.,0.,0.\PG=D03H [O(N1),3C2(O1)]\\@


 "WOULD YOU TELL ME PLEASE, WHICH WAY I OUGHT TO WALK FROM HERE?"
 "THAT DEPENDS A GREAT DEAL ON WHERE YOU WANT TO GO," SAID THE CAT.
 "I DON'T MUCH CARE WHERE -- ", SAID ALICE.
 "THEN IT DOESN'T MATTER WHICH WAY YOU WALK," SAID THE CAT.

                                      -- LEWIS CARROLL
 Job cpu time:       0 days  0 hours  0 minutes 20.7 seconds.
 Elapsed time:       0 days  0 hours  0 minutes  5.2 seconds.
 File lengths (MBytes):  RWF=     16 Int=      0 D2E=      0 Chk=      2 Scr=      1
 Normal termination of Gaussian 16 at Sun Oct  1 00:37:02 2023.
 Link1:  Proceeding to internal job step number  2.
 ------------------------------------------------------------------
 #N Geom=AllCheck Guess=TCheck SCRF=Check GenChk UB3LYP/ChkBas Freq
 ------------------------------------------------------------------
 1/10=4,29=7,30=1,38=1,40=1/1,3;
 2/12=2,40=1/2;
 3/5=7,6=2,11=2,14=-4,25=1,30=1,67=1,70=2,71=2,74=-5,82=7,116=2,140=1/1,2,3;
 4/5=101/1;
 5/5=2,38=6,98=1/2;
 8/6=4,10=90,11=11/1;
 11/6=1,8=1,9=11,15=111,16=1/1,2,10;
 10/6=1,60=-420/2;
 6/7=2,8=2,9=2,10=2,28=1/1;
 7/8=1,10=1,25=1/1,2,3,16;
 1/10=4,30=1/3;
 99//99;
 Structure from the checkpoint file:  "no3.chk"
 -----------------------
 nitroxyl, B3LYP/pcseg-2
 -----------------------
 Charge =  0 Multiplicity = 2
 Redundant internal coordinates found in file.  (old form).
 N,0,0.,-0.0000002581,0.
 O,0,-0.000000106,1.231553,0.
 O,0,1.0665564606,-0.6157767953,0.
 O,0,-1.0665563546,-0.6157769789,0.
 Recover connectivity data from disk.

 GradGradGradGradGradGradGradGradGradGradGradGradGradGradGradGradGradGrad
 Berny optimization.
 Initialization pass.
                           ----------------------------
                           !    Initial Parameters    !
                           ! (Angstroms and Degrees)  !
 --------------------------                            --------------------------
 ! Name  Definition              Value          Derivative Info.                !
 --------------------------------------------------------------------------------
 ! R1    R(1,2)                  1.2316         calculate D2E/DX2 analytically  !
 ! R2    R(1,3)                  1.2316         calculate D2E/DX2 analytically  !
 ! R3    R(1,4)                  1.2316         calculate D2E/DX2 analytically  !
 ! A1    A(2,1,3)              120.0            calculate D2E/DX2 analytically  !
 ! A2    A(2,1,4)              120.0            calculate D2E/DX2 analytically  !
 ! A3    A(3,1,4)              120.0            calculate D2E/DX2 analytically  !
 ! D1    D(2,1,4,3)            180.0            calculate D2E/DX2 analytically  !
 --------------------------------------------------------------------------------
 Trust Radius=3.00D-01 FncErr=1.00D-07 GrdErr=1.00D-07 EigMax=2.50D+02 EigMin=1.00D-04
 Number of steps in this run=      2 maximum allowed number of steps=      2.
 GradGradGradGradGradGradGradGradGradGradGradGradGradGradGradGradGradGrad

                          Input orientation:                          
 ---------------------------------------------------------------------
 Center     Atomic      Atomic             Coordinates (Angstroms)
 Number     Number       Type             X           Y           Z
 ---------------------------------------------------------------------
      1          7           0        0.000000   -0.000000   -0.000000
      2          8           0       -0.000000    1.231553   -0.000000
      3          8           0        1.066556   -0.615777   -0.000000
      4          8           0       -1.066556   -0.615777   -0.000000
 ---------------------------------------------------------------------
                    Distance matrix (angstroms):
                    1          2          3          4
     1  N    0.000000
     2  O    1.231553   0.000000
     3  O    1.231553   2.133113   0.000000
     4  O    1.231553   2.133113   2.133113   0.000000
 Stoichiometry    NO3(2)
 Framework group  D3H[O(N),3C2(O)]
 Deg. of freedom     1
 Full point group                 D3H     NOp  12
 Largest Abelian subgroup         C2V     NOp   4
 Largest concise Abelian subgroup C2      NOp   2
                         Standard orientation:                         
 ---------------------------------------------------------------------
 Center     Atomic      Atomic             Coordinates (Angstroms)
 Number     Number       Type             X           Y           Z
 ---------------------------------------------------------------------
      1          7           0        0.000000    0.000000    0.000000
      2          8           0       -0.000000    1.231553    0.000000
      3          8           0       -1.066556   -0.615777    0.000000
      4          8           0        1.066556   -0.615777    0.000000
 ---------------------------------------------------------------------
 Rotational constants (GHZ):          13.8879332          13.8879332           6.9439666
 Basis read from chk: "no3.chk" (5D, 7F)
 There are    56 symmetry adapted cartesian basis functions of A1  symmetry.
 There are    17 symmetry adapted cartesian basis functions of A2  symmetry.
 There are    40 symmetry adapted cartesian basis functions of B1  symmetry.
 There are    27 symmetry adapted cartesian basis functions of B2  symmetry.
 There are    46 symmetry adapted basis functions of A1  symmetry.
 There are    16 symmetry adapted basis functions of A2  symmetry.
 There are    34 symmetry adapted basis functions of B1  symmetry.
 There are    24 symmetry adapted basis functions of B2  symmetry.
   120 basis functions,   204 primitive gaussians,   140 cartesian basis functions
    16 alpha electrons       15 beta electrons
       nuclear repulsion energy       119.8175772437 Hartrees.
 NAtoms=    4 NActive=    4 NUniq=    2 SFac= 4.00D+00 NAtFMM=   60 NAOKFM=F Big=F
 Integral buffers will be    131072 words long.
 Raffenetti 2 integral format.
 Two-electron integral symmetry is turned on.
 One-electron integrals computed using PRISM.
 NBasis=   120 RedAO= T EigKep=  9.86D-04  NBF=    46    16    34    24
 NBsUse=   120 1.00D-06 EigRej= -1.00D+00 NBFU=    46    16    34    24
 Initial guess from the checkpoint file:  "no3.chk"
 B after Tr=     0.000000    0.000000   -0.000000
         Rot=    1.000000   -0.000000   -0.000000   -0.000000 Ang=   0.00 deg.
 Initial guess orbital symmetries:
 Alpha Orbitals:
       Occupied  (?A) (?A) (?B) (?B) (?B) (?A) (?A) (?B) (?C) (?A)
                 (?A) (?A) (?A) (?D) (?D) (?B)
       Virtual   (?C) (?B) (?A) (?A) (?B) (?C) (?A) (?A) (?B) (?D)
                 (?D) (?A) (?A) (?A) (?A) (?B) (?C) (?B) (?A) (?A)
                 (?D) (?D) (?A) (?A) (?B) (?D) (?D) (?C) (?A) (?A)
                 (?C) (?B) (?B) (?A) (?A) (?C) (?B) (?A) (?A) (?D)
                 (?D) (?B) (?A) (?A) (?B) (?D) (?D) (?C) (?B) (?A)
                 (?A) (?A) (?A) (?D) (?D) (?A) (?A) (?C) (?B) (?D)
                 (?D) (?A) (?A) (?B) (?C) (?B) (?C) (?A) (?A) (?B)
                 (?A) (?A) (?D) (?D) (?B) (?D) (?D) (?A) (?A) (?C)
                 (?D) (?D) (?B) (?A) (?A) (?C) (?D) (?D) (?B) (?A)
                 (?A) (?B) (?D) (?D) (?C) (?A) (?A) (?B) (?A) (?A)
                 (?B) (?A) (?A) (?B)
 Beta  Orbitals:
       Occupied  (?A) (?A) (?B) (?B) (?B) (?A) (?A) (?B) (?C) (?A)
                 (?A) (?D) (?D) (?A) (?A)
       Virtual   (?B) (?C) (?B) (?A) (?A) (?B) (?C) (?A) (?A) (?B)
                 (?D) (?D) (?A) (?A) (?A) (?A) (?B) (?C) (?B) (?A)
                 (?A) (?D) (?D) (?A) (?A) (?B) (?D) (?D) (?C) (?A)
                 (?A) (?C) (?B) (?B) (?A) (?A) (?C) (?B) (?A) (?A)
                 (?D) (?D) (?B) (?A) (?A) (?B) (?D) (?D) (?C) (?B)
                 (?A) (?A) (?A) (?A) (?D) (?D) (?A) (?A) (?C) (?B)
                 (?D) (?D) (?B) (?A) (?A) (?C) (?B) (?C) (?A) (?A)
                 (?B) (?A) (?A) (?D) (?D) (?B) (?D) (?D) (?A) (?A)
                 (?C) (?D) (?D) (?B) (?A) (?A) (?C) (?D) (?D) (?B)
                 (?A) (?A) (?B) (?D) (?D) (?C) (?A) (?A) (?B) (?A)
                 (?A) (?B) (?A) (?A) (?B)
 Initial guess <Sx>= 0.0000 <Sy>= 0.0000 <Sz>= 0.5000 <S**2>= 0.7564 S= 0.5032
 Keep R1 and R2 ints in memory in symmetry-blocked form, NReq=33070735.
 Requested convergence on RMS density matrix=1.00D-08 within 128 cycles.
 Requested convergence on MAX density matrix=1.00D-06.
 Requested convergence on             energy=1.00D-06.
 No special actions if energy rises.
 SCF Done:  E(UB3LYP) =  -280.341355596     A.U. after    1 cycles
            NFock=  1  Conv=0.17D-09     -V/T= 2.0027
 <Sx>= 0.0000 <Sy>= 0.0000 <Sz>= 0.5000 <S**2>= 0.7564 S= 0.5032
 <L.S>=  0.00000000000    
 Annihilation of the first spin contaminant:
 S**2 before annihilation     0.7564,   after     0.7500
 DoSCS=F DFT=T ScalE2(SS,OS)=  1.000000  1.000000
 Range of M.O.s used for correlation:     1   120
 NBasis=   120 NAE=    16 NBE=    15 NFC=     0 NFV=     0
 NROrb=    120 NOA=    16 NOB=    15 NVA=   104 NVB=   105

 **** Warning!!: The largest alpha MO coefficient is  0.23341134D+02


 **** Warning!!: The largest beta MO coefficient is  0.23326948D+02

 Symmetrizing basis deriv contribution to polar:
 IMax=3 JMax=2 DiffMx= 0.00D+00
 G2DrvN: will do     5 centers at a time, making    1 passes.
 Calling FoFCou, ICntrl=  3107 FMM=F I1Cent=   0 AccDes= 0.00D+00.
 End of G2Drv F.D. properties file   721 does not exist.
 End of G2Drv F.D. properties file   722 does not exist.
 End of G2Drv F.D. properties file   788 does not exist.
          IDoAtm=1111
          Differentiating once with respect to electric field.
                with respect to dipole field.
          Differentiating once with respect to nuclear coordinates.
 Keep R1 and R2 ints in memory in symmetry-blocked form, NReq=33073573.
          There are     9 degrees of freedom in the 1st order CPHF.  IDoFFX=4 NUNeed=     9.
      9 vectors produced by pass  0 Test12= 3.60D-14 1.11D-08 XBig12= 1.67D+02 1.07D+01.
 AX will form     9 AO Fock derivatives at one time.
      9 vectors produced by pass  1 Test12= 3.60D-14 1.11D-08 XBig12= 1.20D+02 2.95D+00.
      9 vectors produced by pass  2 Test12= 3.60D-14 1.11D-08 XBig12= 1.19D+01 1.07D+00.
      9 vectors produced by pass  3 Test12= 3.60D-14 1.11D-08 XBig12= 6.43D-01 2.61D-01.
      9 vectors produced by pass  4 Test12= 3.60D-14 1.11D-08 XBig12= 6.32D-02 1.33D-01.
      9 vectors produced by pass  5 Test12= 3.60D-14 1.11D-08 XBig12= 2.44D-03 1.96D-02.
      9 vectors produced by pass  6 Test12= 3.60D-14 1.11D-08 XBig12= 4.04D-05 1.69D-03.
      8 vectors produced by pass  7 Test12= 3.60D-14 1.11D-08 XBig12= 2.99D-07 1.77D-04.
      6 vectors produced by pass  8 Test12= 3.60D-14 1.11D-08 XBig12= 4.67D-09 1.66D-05.
      3 vectors produced by pass  9 Test12= 3.60D-14 1.11D-08 XBig12= 3.64D-11 1.71D-06.
      2 vectors produced by pass 10 Test12= 3.60D-14 1.11D-08 XBig12= 3.15D-13 1.47D-07.
 InvSVY:  IOpt=1 It=  1 EMax= 2.14D-15
 Solved reduced A of dimension    82 with     9 vectors.
 Isotropic polarizability for W=    0.000000       25.75 Bohr**3.
 End of Minotr F.D. properties file   721 does not exist.
 End of Minotr F.D. properties file   722 does not exist.
 End of Minotr F.D. properties file   788 does not exist.

 **********************************************************************

            Population analysis using the SCF Density.

 **********************************************************************

 Orbital symmetries:
 Alpha Orbitals:
       Occupied  (?A) (?A) (?B) (?B) (?B) (?A) (?A) (?B) (?C) (?A)
                 (?A) (?A) (?A) (?D) (?D) (?B)
       Virtual   (?C) (?B) (?A) (?A) (?B) (?C) (?A) (?A) (?B) (?D)
                 (?D) (?A) (?A) (?A) (?A) (?B) (?C) (?B) (?A) (?A)
                 (?D) (?D) (?A) (?A) (?B) (?D) (?D) (?C) (?A) (?A)
                 (?C) (?B) (?B) (?A) (?A) (?C) (?B) (?A) (?A) (?D)
                 (?D) (?B) (?A) (?A) (?B) (?D) (?D) (?C) (?B) (?A)
                 (?A) (?A) (?A) (?D) (?D) (?A) (?A) (?C) (?B) (?D)
                 (?D) (?A) (?A) (?B) (?C) (?B) (?C) (?A) (?A) (?B)
                 (?A) (?A) (?D) (?D) (?B) (?D) (?D) (?A) (?A) (?C)
                 (?D) (?D) (?B) (?A) (?A) (?C) (?D) (?D) (?B) (?A)
                 (?A) (?B) (?D) (?D) (?C) (?A) (?A) (?B) (?A) (?A)
                 (?B) (?A) (?A) (?B)
 Beta  Orbitals:
       Occupied  (?A) (?A) (?B) (?B) (?B) (?A) (?A) (?B) (?C) (?A)
                 (?A) (?D) (?D) (?A) (?A)
       Virtual   (?B) (?C) (?B) (?A) (?A) (?B) (?C) (?A) (?A) (?B)
                 (?D) (?D) (?A) (?A) (?A) (?A) (?B) (?C) (?B) (?A)
                 (?A) (?D) (?D) (?A) (?A) (?B) (?D) (?D) (?C) (?A)
                 (?A) (?C) (?B) (?B) (?A) (?A) (?C) (?B) (?A) (?A)
                 (?D) (?D) (?B) (?A) (?A) (?B) (?D) (?D) (?C) (?B)
                 (?A) (?A) (?A) (?A) (?D) (?D) (?A) (?A) (?C) (?B)
                 (?D) (?D) (?B) (?A) (?A) (?C) (?B) (?C) (?A) (?A)
                 (?B) (?A) (?A) (?D) (?D) (?B) (?D) (?D) (?A) (?A)
                 (?C) (?D) (?D) (?B) (?A) (?A) (?C) (?D) (?D) (?B)
                 (?A) (?A) (?B) (?D) (?D) (?C) (?A) (?A) (?B) (?A)
                 (?A) (?B) (?A) (?A) (?B)
 Unable to determine electronic state:  an orbital has unidentified symmetry.
 Alpha  occ. eigenvalues --  -19.26058 -19.26058 -19.26056 -14.66767  -1.36557
 Alpha  occ. eigenvalues --   -1.14843  -1.14843  -0.69823  -0.64331  -0.62161
 Alpha  occ. eigenvalues --   -0.62161  -0.44748  -0.44748  -0.40415  -0.40415
 Alpha  occ. eigenvalues --   -0.38399
 Alpha virt. eigenvalues --   -0.11385   0.07074   0.17635   0.17635   0.20506
 Alpha virt. eigenvalues --    0.22701   0.26445   0.26445   0.32950   0.35460
 Alpha virt. eigenvalues --    0.35460   0.38078   0.38078   0.43167   0.43167
 Alpha virt. eigenvalues --    0.43575   0.45231   0.57702   0.84522   0.84522
 Alpha virt. eigenvalues --    0.99886   0.99886   1.22010   1.22010   1.23744
 Alpha virt. eigenvalues --    1.45347   1.45347   1.46431   1.51289   1.51289
 Alpha virt. eigenvalues --    1.58503   1.67386   1.77383   1.84086   1.84086
 Alpha virt. eigenvalues --    1.89941   1.91014   1.97136   1.97136   2.00828
 Alpha virt. eigenvalues --    2.00828   2.24500   2.27981   2.27981   2.39909
 Alpha virt. eigenvalues --    2.40336   2.40336   2.41511   2.71881   2.77335
 Alpha virt. eigenvalues --    2.77335   2.87224   2.87224   3.43201   3.43201
 Alpha virt. eigenvalues --    3.60997   3.60997   3.68775   3.77632   3.90340
 Alpha virt. eigenvalues --    3.90340   3.91591   3.91591   3.91757   3.92098
 Alpha virt. eigenvalues --    3.92251   3.97119   4.27048   4.27048   4.36232
 Alpha virt. eigenvalues --    4.54409   4.54409   4.56463   4.56463   4.97715
 Alpha virt. eigenvalues --    5.07722   5.07722   5.28947   5.28947   5.47930
 Alpha virt. eigenvalues --    5.75215   5.75215   5.85298   5.89931   5.89931
 Alpha virt. eigenvalues --    5.94496   5.96008   5.96008   6.03767   6.18204
 Alpha virt. eigenvalues --    6.18204   6.19136   6.38911   6.38911   6.42560
 Alpha virt. eigenvalues --    6.53617   6.53617   6.74990   6.75716   6.75716
 Alpha virt. eigenvalues --    7.22375   7.32816   7.32816  10.01997
  Beta  occ. eigenvalues --  -19.24977 -19.24977 -19.24977 -14.66870  -1.35499
  Beta  occ. eigenvalues --   -1.12777  -1.12777  -0.68027  -0.64138  -0.60154
  Beta  occ. eigenvalues --   -0.60154  -0.39330  -0.39330  -0.38649  -0.38649
  Beta virt. eigenvalues --   -0.25324  -0.10941   0.07651   0.18280   0.18280
  Beta virt. eigenvalues --    0.20898   0.22860   0.26904   0.26904   0.33181
  Beta virt. eigenvalues --    0.35687   0.35687   0.39915   0.39915   0.43355
  Beta virt. eigenvalues --    0.43355   0.44773   0.45321   0.58082   0.85044
  Beta virt. eigenvalues --    0.85044   1.00149   1.00149   1.23444   1.23444
  Beta virt. eigenvalues --    1.24081   1.46651   1.46651   1.48376   1.52617
  Beta virt. eigenvalues --    1.52617   1.58441   1.68632   1.79428   1.85002
  Beta virt. eigenvalues --    1.85002   1.90221   1.91363   1.99341   1.99341
  Beta virt. eigenvalues --    2.01319   2.01319   2.28626   2.29664   2.29664
  Beta virt. eigenvalues --    2.40484   2.40940   2.40940   2.42061   2.72871
  Beta virt. eigenvalues --    2.78702   2.78702   2.88340   2.88340   3.43637
  Beta virt. eigenvalues --    3.43637   3.62236   3.62236   3.69158   3.79104
  Beta virt. eigenvalues --    3.92269   3.92269   3.93173   3.93372   3.93372
  Beta virt. eigenvalues --    3.93511   3.93698   3.98812   4.27447   4.27447
  Beta virt. eigenvalues --    4.36609   4.56106   4.56106   4.57585   4.57585
  Beta virt. eigenvalues --    4.98629   5.07511   5.07511   5.31148   5.31148
  Beta virt. eigenvalues --    5.47976   5.75539   5.75539   5.88465   5.92815
  Beta virt. eigenvalues --    5.92815   5.98214   5.99306   5.99306   6.05029
  Beta virt. eigenvalues --    6.20098   6.20098   6.21845   6.39609   6.39609
  Beta virt. eigenvalues --    6.43010   6.54035   6.54035   6.76936   6.78162
  Beta virt. eigenvalues --    6.78162   7.23146   7.33527   7.33527  10.02454
          Condensed to atoms (all electrons):
               1          2          3          4
     1  N    5.219346   0.372875   0.372875   0.372875
     2  O    0.372875   8.049293  -0.100746  -0.100746
     3  O    0.372875  -0.100746   8.049293  -0.100746
     4  O    0.372875  -0.100746  -0.100746   8.049293
          Atomic-Atomic Spin Densities.
               1          2          3          4
     1  N   -0.052538  -0.012221  -0.012221  -0.012221
     2  O   -0.012221   0.405417  -0.015064  -0.015064
     3  O   -0.012221  -0.015064   0.405417  -0.015064
     4  O   -0.012221  -0.015064  -0.015064   0.405417
 Mulliken charges and spin densities:
               1          2
     1  N    0.662029  -0.089202
     2  O   -0.220676   0.363067
     3  O   -0.220676   0.363067
     4  O   -0.220676   0.363067
 Sum of Mulliken charges =   0.00000   1.00000
 Mulliken charges and spin densities with hydrogens summed into heavy atoms:
               1          2
     1  N    0.662029  -0.089202
     2  O   -0.220676   0.363067
     3  O   -0.220676   0.363067
     4  O   -0.220676   0.363067
 APT charges:
               1
     1  N   -0.052904
     2  O    0.017634
     3  O    0.017634
     4  O    0.017634
 Sum of APT charges =  -0.00000
 APT charges with hydrogens summed into heavy atoms:
               1
     1  N   -0.052904
     2  O    0.017634
     3  O    0.017634
     4  O    0.017634
 Electronic spatial extent (au):  <R**2>=            179.0734
 Charge=             -0.0000 electrons
 Dipole moment (field-independent basis, Debye):
    X=              0.0000    Y=              0.0000    Z=              0.0000  Tot=              0.0000
 Quadrupole moment (field-independent basis, Debye-Ang):
   XX=            -22.9271   YY=            -22.9271   ZZ=            -20.1625
   XY=             -0.0000   XZ=             -0.0000   YZ=             -0.0000
 Traceless Quadrupole moment (field-independent basis, Debye-Ang):
   XX=             -0.9215   YY=             -0.9215   ZZ=              1.8431
   XY=             -0.0000   XZ=             -0.0000   YZ=             -0.0000
 Octapole moment (field-independent basis, Debye-Ang**2):
  XXX=             -0.0000  YYY=             -0.9508  ZZZ=              0.0000  XYY=              0.0000
  XXY=              0.9508  XXZ=              0.0000  XZZ=             -0.0000  YZZ=              0.0000
  YYZ=             -0.0000  XYZ=             -0.0000
 Hexadecapole moment (field-independent basis, Debye-Ang**3):
 XXXX=            -90.8481 YYYY=            -90.8481 ZZZZ=            -15.5188 XXXY=             -0.0000
 XXXZ=             -0.0000 YYYX=             -0.0000 YYYZ=             -0.0000 ZZZX=             -0.0000
 ZZZY=             -0.0000 XXYY=            -30.2827 XXZZ=            -17.9065 YYZZ=            -17.9065
 XXYZ=             -0.0000 YYXZ=             -0.0000 ZZXY=             -0.0000
 N-N= 1.198175772437D+02 E-N=-9.001291915469D+02  KE= 2.795892909162D+02
 Symmetry A1   KE= 1.882055284149D+02
 Symmetry A2   KE= 5.103702552330D+00
 Symmetry B1   KE= 7.736443755182D+01
 Symmetry B2   KE= 8.915622397195D+00
 Symmetry A1   SP=-3.651970058351D-15
 Symmetry A2   SP= 3.896520963959D-16
 Symmetry B1   SP= 1.000000000000D+00
 Symmetry B2   SP= 4.175542087114D-16
  Exact polarizability:  32.649   0.000  32.650   0.000   0.000  11.940
 Approx polarizability:  73.738   0.000  73.738  -0.000  -0.000  16.083
                          Isotropic Fermi Contact Couplings
        Atom                 a.u.       MegaHertz       Gauss      10(-4) cm-1
     1  N(14)             -0.03429     -11.07887      -3.95322      -3.69551
     2  O(17)              0.07608     -46.11776     -16.45596     -15.38323
     3  O(17)              0.07608     -46.11776     -16.45596     -15.38323
     4  O(17)              0.07608     -46.11776     -16.45596     -15.38323
 --------------------------------------------------------
       Center         ----  Spin Dipole Couplings  ----
                      3XX-RR        3YY-RR        3ZZ-RR
 --------------------------------------------------------
     1   Atom        0.044730      0.044730     -0.089460
     2   Atom        1.763651     -0.906415     -0.857236
     3   Atom       -0.238898      1.096135     -0.857236
     4   Atom       -0.238898      1.096135     -0.857236
 --------------------------------------------------------
                        XY            XZ            YZ
 --------------------------------------------------------
     1   Atom        0.000000      0.000000      0.000000
     2   Atom        0.000000      0.000000      0.000000
     3   Atom       -1.156173      0.000000      0.000000
     4   Atom        1.156173      0.000000      0.000000
 --------------------------------------------------------


 ---------------------------------------------------------------------------------
              Anisotropic Spin Dipole Couplings in Principal Axis System
 ---------------------------------------------------------------------------------

       Atom             a.u.   MegaHertz   Gauss  10(-4) cm-1        Axes

              Baa    -0.0895    -3.450    -1.231    -1.151  0.0000  0.0000  1.0000
     1 N(14)  Bbb     0.0447     1.725     0.616     0.575 -0.0005  1.0000 -0.0000
              Bcc     0.0447     1.725     0.616     0.575  1.0000  0.0005  0.0000
 
              Baa    -0.9064    65.588    23.403    21.878 -0.0000  1.0000 -0.0000
     2 O(17)  Bbb    -0.8572    62.029    22.133    20.691  0.0000  0.0000  1.0000
              Bcc     1.7637  -127.617   -45.537   -42.568  1.0000  0.0000  0.0000
 
              Baa    -0.9064    65.588    23.403    21.878  0.8660  0.5000  0.0000
     3 O(17)  Bbb    -0.8572    62.029    22.133    20.691  0.0000  0.0000  1.0000
              Bcc     1.7637  -127.617   -45.537   -42.568 -0.5000  0.8660  0.0000
 
              Baa    -0.9064    65.588    23.403    21.878  0.8660 -0.5000 -0.0000
     4 O(17)  Bbb    -0.8572    62.029    22.133    20.691  0.0000  0.0000  1.0000
              Bcc     1.7637  -127.617   -45.537   -42.568  0.5000  0.8660  0.0000
 

 ---------------------------------------------------------------------------------

 Calling FoFJK, ICntrl=    100127 FMM=F ISym2X=1 I1Cent= 0 IOpClX= 1 NMat=1 NMatS=1 NMatT=0.
 Full mass-weighted force constant matrix:
 Low frequencies ---   -0.0073   -0.0045   -0.0012   15.7691   16.6240   16.6240
 Low frequencies ---  229.2700  229.2848  805.1666
 Diagonal vibrational polarizability:
        8.8557826       8.8584644       0.4781443
 Harmonic frequencies (cm**-1), IR intensities (KM/Mole), Raman scattering
 activities (A**4/AMU), depolarization ratios for plane and unpolarized
 incident light, reduced masses (AMU), force constants (mDyne/A),
 and normal coordinates:
                      1                      2                      3
                     ?A                     ?A                     A2"
 Frequencies --    229.2700               229.2848               805.1666
 Red. masses --     15.1587                15.1587                14.4084
 Frc consts  --      0.4695                 0.4695                 5.5035
 IR Inten    --     17.2819                17.2789                11.5185
  Atom  AN      X      Y      Z        X      Y      Z        X      Y      Z
     1   7    -0.00   0.65   0.00     0.65   0.00   0.00     0.00   0.00   0.89
     2   8     0.00   0.21  -0.00    -0.59   0.00  -0.00     0.00  -0.00  -0.26
     3   8     0.34  -0.39  -0.00     0.01   0.34  -0.00    -0.00  -0.00  -0.26
     4   8    -0.34  -0.39  -0.00     0.01  -0.34  -0.00     0.00   0.00  -0.26
                      4                      5                      6
                     ?A                     ?A                     ?B
 Frequencies --   1102.6223              1102.6245              1129.9822
 Red. masses --     15.1619                15.1619                15.9949
 Frc consts  --     10.8607                10.8607                12.0330
 IR Inten    --      0.4866                 0.4871                 0.0000
  Atom  AN      X      Y      Z        X      Y      Z        X      Y      Z
     1   7     0.00   0.65  -0.00     0.65  -0.00  -0.00    -0.00   0.00  -0.00
     2   8     0.00  -0.59   0.00     0.21   0.00   0.00    -0.00   0.58   0.00
     3   8    -0.34   0.01   0.00    -0.39  -0.34   0.00    -0.50  -0.29   0.00
     4   8     0.34   0.01   0.00    -0.39   0.34   0.00     0.50  -0.29   0.00

 -------------------
 - Thermochemistry -
 -------------------
 Temperature   298.150 Kelvin.  Pressure   1.00000 Atm.
 Atom     1 has atomic number  7 and mass  14.00307
 Atom     2 has atomic number  8 and mass  15.99491
 Atom     3 has atomic number  8 and mass  15.99491
 Atom     4 has atomic number  8 and mass  15.99491
 Molecular mass:    61.98782 amu.
 Principal axes and moments of inertia in atomic units:
                           1         2         3
     Eigenvalues --   129.95031 129.95031 259.90062
           X            0.38268   0.92388   0.00000
           Y            0.92388  -0.38268   0.00000
           Z            0.00000  -0.00000   1.00000
 This molecule is an oblate symmetric top.
 Rotational symmetry number  6.
 Rotational temperatures (Kelvin)      0.66652     0.66652     0.33326
 Rotational constants (GHZ):          13.88793    13.88793     6.94397
 Zero-point vibrational energy      27507.8 (Joules/Mol)
                                    6.57453 (Kcal/Mol)
 Warning -- explicit consideration of   2 degrees of freedom as
           vibrations may cause significant error
 Vibrational temperatures:    329.87   329.89  1158.46  1586.43  1586.43
          (Kelvin)           1625.79
 
 Zero-point correction=                           0.010477 (Hartree/Particle)
 Thermal correction to Energy=                    0.014491
 Thermal correction to Enthalpy=                  0.015435
 Thermal correction to Gibbs Free Energy=        -0.014622
 Sum of electronic and zero-point Energies=           -280.330878
 Sum of electronic and thermal Energies=              -280.326865
 Sum of electronic and thermal Enthalpies=            -280.325921
 Sum of electronic and thermal Free Energies=         -280.355977
 
                     E (Thermal)             CV                S
                      KCal/Mol        Cal/Mol-Kelvin    Cal/Mol-Kelvin
 Total                    9.093             11.007             63.260
 Electronic               0.000              0.000              1.377
 Translational            0.889              2.981             38.292
 Rotational               0.889              2.981             19.439
 Vibrational              7.316              5.046              4.151
 Vibration     1          0.652              1.796              1.885
 Vibration     2          0.652              1.796              1.885
                       Q            Log10(Q)             Ln(Q)
 Total Bot       0.531618D+07          6.725599         15.486265
 Total V=0       0.350561D+12         11.544763         26.582800
 Vib (Bot)       0.350575D-04         -4.455219        -10.258521
 Vib (Bot)    1  0.859340D+00         -0.065835         -0.151590
 Vib (Bot)    2  0.859279D+00         -0.065866         -0.151661
 Vib (V=0)       0.231177D+01          0.363945          0.838014
 Vib (V=0)    1  0.149422D+01          0.174413          0.401602
 Vib (V=0)    2  0.149416D+01          0.174398          0.401567
 Electronic      0.200000D+01          0.301030          0.693147
 Translational   0.191829D+08          7.282913         16.769528
 Rotational      0.395253D+04          3.596875          8.282111
 ***** Axes restored to original set *****
 -------------------------------------------------------------------
 Center     Atomic                   Forces (Hartrees/Bohr)
 Number     Number              X              Y              Z
 -------------------------------------------------------------------
      1        7          -0.000000000   -0.000000000   -0.000000000
      2        8           0.000000000   -0.000370538   -0.000000000
      3        8          -0.000320895    0.000185269    0.000000000
      4        8           0.000320895    0.000185269   -0.000000000
 -------------------------------------------------------------------
 Cartesian Forces:  Max     0.000370538 RMS     0.000185269
 FormGI is forming the generalized inverse of G from B-inverse, IUseBI=4.

 GradGradGradGradGradGradGradGradGradGradGradGradGradGradGradGradGradGrad
 Berny optimization.
 Internal  Forces:  Max     0.000370538 RMS     0.000242574
 Search for a local minimum.
 Step number   1 out of a maximum of    2
 All quantities printed in internal units (Hartrees-Bohrs-Radians)
 Second derivative matrix not updated -- analytic derivatives used.
 The second derivative matrix:
                          R1        R2        R3        A1        A2
           R1           0.52622
           R2           0.12333   0.52622
           R3           0.12333   0.12333   0.52622
           A1           0.06674   0.06674  -0.13348   0.08195
           A2           0.06674  -0.13348   0.06674  -0.04097   0.08195
           A3          -0.13348   0.06674   0.06674  -0.04097  -0.04097
           D1           0.00000  -0.00000   0.00000  -0.00000   0.00000
                          A3        D1
           A3           0.08195
           D1          -0.00000   0.11982
 ITU=  0
     Eigenvalues ---    0.01860   0.01860   0.11982   0.50721   0.50721
     Eigenvalues ---    0.77289
 Angle between quadratic step and forces=   0.00 degrees.
 Linear search not attempted -- first point.
 Iteration  1 RMS(Cart)=  0.00031385 RMS(Int)=  0.00000000
 Iteration  2 RMS(Cart)=  0.00000000 RMS(Int)=  0.00000000
 ClnCor:  largest displacement from symmetrization is 3.61D-09 for atom     1.
 Variable       Old X    -DE/DX   Delta X   Delta X   Delta X     New X
                                 (Linear)    (Quad)   (Total)
    R1        2.32730  -0.00037   0.00000  -0.00048  -0.00048   2.32682
    R2        2.32730  -0.00037   0.00000  -0.00048  -0.00048   2.32682
    R3        2.32730  -0.00037   0.00000  -0.00048  -0.00048   2.32682
    A1        2.09440  -0.00000   0.00000   0.00000   0.00000   2.09440
    A2        2.09440  -0.00000   0.00000   0.00000   0.00000   2.09440
    A3        2.09440   0.00000   0.00000  -0.00000   0.00000   2.09440
    D1        3.14159  -0.00000   0.00000  -0.00000   0.00000   3.14159
         Item               Value     Threshold  Converged?
 Maximum Force            0.000371     0.000450     YES
 RMS     Force            0.000243     0.000300     YES
 Maximum Displacement     0.000479     0.001800     YES
 RMS     Displacement     0.000314     0.001200     YES
 Predicted change in Energy=-2.664646D-07
 Optimization completed.
    -- Stationary point found.
                           ----------------------------
                           !   Optimized Parameters   !
                           ! (Angstroms and Degrees)  !
 --------------------------                            --------------------------
 ! Name  Definition              Value          Derivative Info.                !
 --------------------------------------------------------------------------------
 ! R1    R(1,2)                  1.2316         -DE/DX =   -0.0004              !
 ! R2    R(1,3)                  1.2316         -DE/DX =   -0.0004              !
[...]
 There are    79 symmetry adapted basis functions of A1  symmetry.
 There are    28 symmetry adapted basis functions of A2  symmetry.
 There are    61 symmetry adapted basis functions of B1  symmetry.
 There are    44 symmetry adapted basis functions of B2  symmetry.
   212 basis functions,   312 primitive gaussians,   248 cartesian basis functions
    16 alpha electrons       15 beta electrons
       nuclear repulsion energy       119.8175772437 Hartrees.
 NAtoms=    4 NActive=    4 NUniq=    2 SFac= 4.00D+00 NAtFMM=   60 NAOKFM=F Big=F
 Integral buffers will be    131072 words long.
 Raffenetti 2 integral format.
 Two-electron integral symmetry is turned on.
 One-electron integrals computed using PRISM.
 NBasis=   212 RedAO= T EigKep=  3.29D-04  NBF=    79    28    61    44
 NBsUse=   212 1.00D-06 EigRej= -1.00D+00 NBFU=    79    28    61    44
 Initial guess from the checkpoint file:  "no3.chk"
 B after Tr=     0.000000    0.000000    0.000000
         Rot=    1.000000    0.000000   -0.000000   -0.000000 Ang=   0.00 deg.
 BiOrM2:  NumA=      16 NumB=      15.
 Eigenvalues of SAB:
  1.00000000  0.99999995  0.99999995  0.99999994  0.99998637
  0.99997697  0.99997697  0.99997320  0.99997320  0.99991532
  0.99991532  0.99989620  0.99986762  0.99866035  0.99866035
  0.00000000
 BiOrM2:  NumA=       1 NumB=     197.
 Eigenvalues of SAB:
  1.00000000 -0.00247620 -0.00297555  0.00000000 -0.04330052
 -0.03522678  0.00000000 -0.01698068 -0.00402833  0.00000000
  0.03347815  0.03680264  0.00000000 -0.03090089  0.09355370
  0.00000000  0.27191554  0.00000000  0.00000000 -0.14523411
  0.00334711 -0.03483369  0.00000000  0.00000000  0.01806251
 -0.01504865 -0.29712477  0.00000000  0.00000000  0.15762380
 -0.01983813  0.00000000  0.12868872 -0.02538362  0.00000000
  0.00000000 -0.11881222 -0.08631944  0.00000000  0.01264464
 -0.02016867  0.00000000  0.00000000  0.02705557  0.04229998
  0.00000000  0.00000000  0.00000000  0.00000000  0.00000000
  0.00000000 -0.13899334  0.00000000  0.00000000  0.03355146
  0.00000000  0.00000000  0.10009021  0.00000000  0.00000000
  0.00300012  0.00000000  0.00000000 -0.00983500  0.00000000
  0.00000000 -0.03299916  0.00000000  0.00000000  0.00000000
  0.00000000  0.00000000  0.00000000  0.03943336  0.00000000
  0.00000000  0.00000000  0.00000000  0.03031826  0.00000000
  0.00000000  0.00000000  0.00000000  0.02782295  0.00000000
 -0.48470894  0.00000000  0.00000000  0.00000000 -0.00000000
  0.00000000  0.00000000  0.04081169  0.00000000  0.00000000
  0.00000000  0.00000000  0.00000000  0.00000000  0.00000000
  0.00000000  0.00000000  0.00000000  0.00000000  0.27411468
  0.00000000  0.00000000 -0.05282649  0.00000000  0.00000000
 -0.23063998  0.00000000  0.00000000 -0.04770323  0.00000000
  0.00000000  0.14899643  0.00000000  0.00000000  0.14267020
  0.00000000  0.00000000  0.00000000  0.00000000  0.00000000
  0.00000000  0.07675026  0.00000000  0.00000000  0.00000000
  0.00000000 -0.02378014  0.00000000  0.00000000  0.00000000
  0.00000000  0.01966738  0.00000000 -0.01708531  0.00000000
  0.00000000  0.00000000  0.04608944  0.00000000  0.00000000
  0.03976736  0.00000000  0.00000000  0.00000000  0.06300508
  0.00000000  0.04090302 -0.00639298 -0.06317613 -0.02509051
  0.04532807  0.05550906 -0.01718948 -0.16818454  0.00000000
  0.00132629  0.03126512  0.00000000  0.01332650  0.14085411
  0.00000000  0.05960925  0.06195689  0.00000000 -0.00598577
 -0.08947901  0.00000000 -0.09333014 -0.13625486  0.00000000
  0.06664469  0.00000000  0.00000000  0.17754332  0.38426431
 -0.02795740  0.00000000  0.00000000 -0.03045481 -0.07652942
 -0.12845036  0.00000000  0.00000000 -0.18042172 -0.29283221
  0.00000000 -0.09198103 -0.04324107  0.00000000  0.00000000
 -0.02304472 -0.21724398
 BiOrM2:  NumA=     196 NumB=     196.
 Eigenvalues of SAB:
  1.00000000  1.00000000  1.00000000  1.00000000  1.00000000
  1.00000000  1.00000000  1.00000000  1.00000000  1.00000000
  1.00000000  1.00000000  1.00000000  1.00000000  1.00000000
  1.00000000  1.00000000  1.00000000  1.00000000  1.00000000
  1.00000000  1.00000000  1.00000000  1.00000000  1.00000000
  1.00000000  1.00000000  1.00000000  1.00000000  1.00000000
  1.00000000  1.00000000  1.00000000  1.00000000  1.00000000
  1.00000000  1.00000000  1.00000000  1.00000000  1.00000000
  1.00000000  1.00000000  1.00000000  1.00000000  1.00000000
  1.00000000  1.00000000  1.00000000  1.00000000  1.00000000
  1.00000000  1.00000000  1.00000000  1.00000000  1.00000000
  1.00000000  1.00000000  1.00000000  1.00000000  1.00000000
  1.00000000  1.00000000  1.00000000  1.00000000  1.00000000
  1.00000000  1.00000000  1.00000000  1.00000000  1.00000000
  1.00000000  1.00000000  1.00000000  1.00000000  1.00000000
  1.00000000  1.00000000  1.00000000  1.00000000  1.00000000
  1.00000000  1.00000000  1.00000000  1.00000000  1.00000000
  1.00000000  1.00000000  1.00000000  1.00000000  1.00000000
  1.00000000  1.00000000  1.00000000  1.00000000  1.00000000
  1.00000000  1.00000000  1.00000000  1.00000000  1.00000000
  1.00000000  1.00000000  1.00000000  1.00000000  1.00000000
  1.00000000  1.00000000  1.00000000  1.00000000  1.00000000
  1.00000000  1.00000000  1.00000000  1.00000000  1.00000000
  1.00000000  1.00000000  1.00000000  1.00000000  1.00000000
  1.00000000  1.00000000  1.00000000  1.00000000  1.00000000
  1.00000000  1.00000000  1.00000000  1.00000000  1.00000000
  1.00000000  1.00000000  1.00000000  1.00000000  1.00000000
  1.00000000  1.00000000  1.00000000  1.00000000  1.00000000
  1.00000000  1.00000000  1.00000000  1.00000000  1.00000000
  1.00000000  1.00000000  1.00000000  1.00000000  1.00000000
  1.00000000  1.00000000  1.00000000  1.00000000  1.00000000
  1.00000000  1.00000000  1.00000000  1.00000000  1.00000000
  1.00000000  1.00000000  1.00000000  1.00000000  1.00000000
  1.00000000  1.00000000  1.00000000  1.00000000  1.00000000
  1.00000000  1.00000000  1.00000000  1.00000000  1.00000000
  1.00000000  1.00000000  1.00000000  1.00000000  1.00000000
  1.00000000  1.00000000  0.99999995  0.99999995  0.99999994
  0.99998637  0.99997697  0.99997697  0.99997320  0.99997320
  0.99991532  0.99991532  0.99989620  0.99986762  0.99866035
  0.99866035
 Initial guess orbital symmetries:
       Occupied  (?A) (?A) (?A) (?A) (?A) (?A) (?A) (?A) (?A) (?A)
                 (?A) (?A) (?A) (?A) (?A) (?A)
       Virtual   (?A) (?A) (?A) (?A) (?A) (?A) (?A) (?A) (?A) (?A)
                 (?A) (?A) (?A) (?A) (?A) (?A) (?A) (?A) (?A) (?A)
                 (?A) (?A) (?A) (?A) (?A) (?A) (?A) (?A) (?A) (?A)
                 (?A) (?A) (?A) (?A) (?A) (?A) (?A) (?A) (?A) (?A)
                 (?A) (?A) (?A) (?A) (?A) (?A) (?A) (?A) (?A) (?A)
                 (?A) (?A) (?A) (?A) (?A) (?A) (?A) (?A) (?A) (?A)
                 (?A) (?A) (?A) (?A) (?A) (?A) (?A) (?A) (?A) (?A)
                 (?A) (?A) (?A) (?A) (?A) (?A) (?A) (?A) (?A) (?A)
                 (?A) (?A) (?A) (?A) (?A) (?A) (?A) (?A) (?A) (?A)
                 (?A) (?A) (?A) (?A) (?A) (?A) (?A) (?A) (?A) (?A)
                 (?A) (?A) (?A) (?A) (?A) (?A) (?A) (?A) (?A) (?A)
                 (?A) (?A) (?A) (?A) (?A) (?A) (?A) (?A) (?A) (?A)
                 (?A) (?A) (?A) (?A) (?A) (?A) (?A) (?A) (?A) (?A)
                 (?A) (?A) (?A) (?A) (?A) (?A) (?A) (?A) (?A) (?A)
                 (?A) (?A) (?A) (?A) (?A) (?A) (?A) (?A) (?A) (?A)
                 (?A) (?A) (?A) (?A) (?A) (?A) (?A) (?A) (?A) (?A)
                 (?A) (?A) (?A) (?A) (?A) (?A) (?A) (?A) (?A) (?A)
                 (?A) (?A) (?A) (?A) (?A) (?A) (?A) (?A) (?A) (?A)
                 (?A) (?A) (?A) (?A) (?A) (?A) (?A) (?A) (?A) (?A)
                 (?A) (?A) (?A) (?A) (?A) (?A)
 Keep R1 and R2 ints in memory in symmetry-blocked form, NReq=319471364.
 Requested convergence on RMS density matrix=1.00D-08 within 128 cycles.
 Requested convergence on MAX density matrix=1.00D-06.
 Requested convergence on             energy=1.00D-06.
 No special actions if energy rises.
 An orbital has undefined symmetry, so N**3 symmetry is turned off.
 SCF Done:  E(ROHF) =  -278.879489748     A.U. after   11 cycles
            NFock= 11  Conv=0.12D-08     -V/T= 2.0019
 <Sx>= 0.0000 <Sy>= 0.0000 <Sz>= 0.5000 <S**2>= 0.7500 S= 0.5000
 <L.S>=  0.00000000000    
 Annihilation of the first spin contaminant:
 S**2 before annihilation     0.7500,   after     0.7500

 **********************************************************************

            Population analysis using the SCF Density.

 **********************************************************************

 Orbital symmetries:
       Occupied  (?A) (?A) (?B) (?B) (?B) (?A) (?A) (?B) (?C) (?A)
                 (?A) (?D) (?D) (?A) (?A) (?B)
       Virtual   (?C) (?B) (?A) (?A) (?C) (?A) (?A) (?D) (?D) (?B)
                 (?B) (?A) (?A) (?C) (?B) (?A) (?A) (?B) (?A) (?A)
                 (?C) (?B) (?B) (?A) (?A) (?D) (?D) (?A) (?A) (?B)
                 (?A) (?A) (?C) (?D) (?D) (?B) (?A) (?A) (?A) (?A)
                 (?B) (?C) (?D) (?D) (?C) (?A) (?A) (?B) (?B) (?D)
                 (?D) (?B) (?A) (?A) (?A) (?A) (?C) (?B) (?A) (?A)
                 (?D) (?D) (?A) (?A) (?C) (?B) (?D) (?D) (?B) (?A)
                 (?A) (?D) (?D) (?C) (?B) (?C) (?C) (?A) (?A) (?B)
                 (?B) (?A) (?A) (?D) (?D) (?D) (?D) (?A) (?A) (?B)
                 (?A) (?A) (?A) (?A) (?B) (?D) (?D) (?C) (?B) (?C)
                 (?B) (?D) (?D) (?A) (?A) (?B) (?C) (?A) (?A) (?A)
                 (?A) (?D) (?D) (?A) (?A) (?B) (?B) (?A) (?A) (?B)
                 (?B) (?D) (?D) (?C) (?A) (?A) (?B) (?A) (?A) (?C)
                 (?D) (?D) (?B) (?A) (?A) (?D) (?D) (?C) (?C) (?B)
                 (?A) (?A) (?A) (?A) (?D) (?D) (?C) (?B) (?B) (?A)
                 (?A) (?C) (?D) (?D) (?A) (?A) (?B) (?D) (?D) (?B)
                 (?A) (?A) (?D) (?D) (?C) (?B) (?A) (?A) (?A) (?A)
                 (?C) (?D) (?D) (?B) (?A) (?A) (?B) (?A) (?A) (?B)
                 (?C) (?A) (?A) (?B) (?C) (?D) (?D) (?B) (?A) (?A)
                 (?A) (?A) (?B) (?B) (?A) (?A)
 Unable to determine electronic state:  an orbital has unidentified symmetry.
 Alpha  occ. eigenvalues --  -20.70783 -20.70783 -20.70780 -15.98260  -1.74137
 Alpha  occ. eigenvalues --   -1.47343  -1.47343  -0.94546  -0.84224  -0.82184
 Alpha  occ. eigenvalues --   -0.82184  -0.56784  -0.56784  -0.54214  -0.54214
 Alpha  occ. eigenvalues --   -0.23910
 Alpha virt. eigenvalues --    0.04828   0.06362   0.08825   0.08825   0.10591
 Alpha virt. eigenvalues --    0.16143   0.16143   0.16715   0.16715   0.17138
 Alpha virt. eigenvalues --    0.21566   0.22100   0.22100   0.23355   0.28831
 Alpha virt. eigenvalues --    0.32199   0.32199   0.36365   0.51755   0.51755
 Alpha virt. eigenvalues --    0.54647   0.58296   0.65731   0.66320   0.66320
 Alpha virt. eigenvalues --    0.68770   0.68770   0.71337   0.71337   0.76266
 Alpha virt. eigenvalues --    0.79084   0.79084   0.79779   0.86530   0.86530
 Alpha virt. eigenvalues --    0.97378   1.10558   1.10558   1.23056   1.23056
 Alpha virt. eigenvalues --    1.23066   1.23398   1.27048   1.27048   1.47606
 Alpha virt. eigenvalues --    1.48118   1.48118   1.55248   1.63175   1.72978
 Alpha virt. eigenvalues --    1.72978   1.74044   1.77788   1.77788   1.77960
 Alpha virt. eigenvalues --    1.77960   1.86504   1.92157   1.97560   1.97560
 Alpha virt. eigenvalues --    2.10015   2.10015   2.16514   2.16514   2.20375
 Alpha virt. eigenvalues --    2.24245   2.27300   2.27300   2.36020   2.43906
 Alpha virt. eigenvalues --    2.43906   2.45538   2.45538   2.45546   2.58555
 Alpha virt. eigenvalues --    2.61947   2.73913   2.75149   2.75149   2.81700
 Alpha virt. eigenvalues --    2.82051   2.87526   2.87526   3.14927   3.14927
 Alpha virt. eigenvalues --    3.18328   3.18328   3.43797   3.43797   3.51077
 Alpha virt. eigenvalues --    3.53955   3.53955   3.63303   3.63303   3.74231
 Alpha virt. eigenvalues --    3.75777   3.75777   3.77906   3.80271   3.81309
 Alpha virt. eigenvalues --    3.83914   3.91865   3.91865   4.00049   4.00049
 Alpha virt. eigenvalues --    4.02140   4.06162   4.12790   4.12790   4.32392
 Alpha virt. eigenvalues --    4.32392   4.37305   4.37305   4.46445   4.46445
 Alpha virt. eigenvalues --    4.74863   5.62249   5.80896   5.80896   5.84910
 Alpha virt. eigenvalues --    5.84938   5.87134   5.87134   5.92037   6.33191
 Alpha virt. eigenvalues --    6.33191   6.42951   6.72127   6.72127   6.73258
 Alpha virt. eigenvalues --    6.79079   6.79079   6.84969   6.89971   6.89971
 Alpha virt. eigenvalues --    6.93872   6.93872   6.96510   6.98238   7.00035
 Alpha virt. eigenvalues --    7.25363   7.25363   7.40801   7.40801   7.64571
 Alpha virt. eigenvalues --    7.64571   7.93860   8.24522   8.53347   9.13742
 Alpha virt. eigenvalues --    9.13742   9.94355   9.95701   9.95701  10.21023
 Alpha virt. eigenvalues --   10.21023  10.22002  10.31637  10.31637  10.39672
 Alpha virt. eigenvalues --   10.55095  10.55095  11.02779  11.02779  11.07146
 Alpha virt. eigenvalues --   11.11377  11.12091  11.12091  11.24077  11.24077
 Alpha virt. eigenvalues --   11.33416  11.54315  11.54315  11.57072  11.78014
 Alpha virt. eigenvalues --   11.78014  12.50602  13.08850  13.08850  13.19275
 Alpha virt. eigenvalues --   29.24929  30.44772  30.44772  32.69295  37.46265
 Alpha virt. eigenvalues --   37.52357  37.52357  37.67873  37.87426  37.87426
 Alpha virt. eigenvalues --   38.06422  38.06422  38.20042  42.49426  43.05955
 Alpha virt. eigenvalues --   43.05955
          Condensed to atoms (all electrons):
               1          2          3          4
     1  N    5.250501   0.358542   0.358542   0.358542
     2  O    0.358542   8.022885  -0.078401  -0.078401
     3  O    0.358542  -0.078401   8.022885  -0.078401
     4  O    0.358542  -0.078401  -0.078401   8.022885
          Atomic-Atomic Spin Densities.
               1          2          3          4
     1  N    0.001054   0.006876   0.006876   0.006876
     2  O    0.006876   0.367595  -0.024182  -0.024182
     3  O    0.006876  -0.024182   0.367595  -0.024182
     4  O    0.006876  -0.024182  -0.024182   0.367595
 Mulliken charges and spin densities:
               1          2
     1  N    0.673874   0.021681
     2  O   -0.224625   0.326106
     3  O   -0.224625   0.326106
     4  O   -0.224625   0.326106
 Sum of Mulliken charges =  -0.00000   1.00000
 Mulliken charges and spin densities with hydrogens summed into heavy atoms:
               1          2
     1  N    0.673874   0.021681
     2  O   -0.224625   0.326106
     3  O   -0.224625   0.326106
     4  O   -0.224625   0.326106
 Electronic spatial extent (au):  <R**2>=            179.1065
 Charge=             -0.0000 electrons
 Dipole moment (field-independent basis, Debye):
    X=             -0.0000    Y=             -0.0000    Z=              0.0000  Tot=              0.0000
 Quadrupole moment (field-independent basis, Debye-Ang):
   XX=            -22.9518   YY=            -22.9518   ZZ=            -20.1577
   XY=             -0.0000   XZ=             -0.0000   YZ=             -0.0000
 Traceless Quadrupole moment (field-independent basis, Debye-Ang):
   XX=             -0.9314   YY=             -0.9314   ZZ=              1.8628
   XY=             -0.0000   XZ=             -0.0000   YZ=             -0.0000
 Octapole moment (field-independent basis, Debye-Ang**2):
  XXX=             -0.0000  YYY=             -0.6574  ZZZ=              0.0000  XYY=             -0.0000
  XXY=              0.6574  XXZ=             -0.0000  XZZ=             -0.0000  YZZ=              0.0000
  YYZ=              0.0000  XYZ=              0.0000
 Hexadecapole moment (field-independent basis, Debye-Ang**3):
 XXXX=            -88.7939 YYYY=            -88.7939 ZZZZ=            -14.9019 XXXY=             -0.0000
 XXXZ=             -0.0000 YYYX=             -0.0000 YYYZ=             -0.0000 ZZZX=             -0.0000
 ZZZY=             -0.0000 XXYY=            -29.5980 XXZZ=            -17.6318 YYZZ=            -17.6318
 XXYZ=             -0.0000 YYXZ=             -0.0000 ZZXY=             -0.0000
 N-N= 1.198175772437D+02 E-N=-8.980747942742D+02  KE= 2.783592203490D+02
 Symmetry A1   KE= 1.879641678148D+02
 Symmetry A2   KE= 4.888223348923D+00
 Symmetry B1   KE= 7.689115661054D+01
 Symmetry B2   KE= 8.615672574677D+00
 Symmetry A1   SP=-3.820823691903D-15
 Symmetry A2   SP=-4.852087233687D-16
 Symmetry B1   SP= 1.000000000000D+00
 Symmetry B2   SP=-9.490373089796D-16
                          Isotropic Fermi Contact Couplings
        Atom                 a.u.       MegaHertz       Gauss      10(-4) cm-1
     1  N(14)             -0.00000      -0.00000      -0.00000      -0.00000
     2  O(17)             -0.00000       0.00000       0.00000       0.00000
     3  O(17)             -0.00000       0.00000       0.00000       0.00000
     4  O(17)             -0.00000       0.00000       0.00000       0.00000
 --------------------------------------------------------
       Center         ----  Spin Dipole Couplings  ----
                      3XX-RR        3YY-RR        3ZZ-RR
 --------------------------------------------------------
     1   Atom        0.031947      0.031947     -0.063893
     2   Atom        1.429262     -0.703680     -0.725583
     3   Atom       -0.170444      0.896027     -0.725583
     4   Atom       -0.170444      0.896027     -0.725583
 --------------------------------------------------------
                        XY            XZ            YZ
 --------------------------------------------------------
     1   Atom       -0.000000      0.000000      0.000000
     2   Atom       -0.000000      0.000000      0.000000
     3   Atom       -0.923591      0.000000      0.000000
     4   Atom        0.923591      0.000000      0.000000
 --------------------------------------------------------


 ---------------------------------------------------------------------------------
              Anisotropic Spin Dipole Couplings in Principal Axis System
 ---------------------------------------------------------------------------------

       Atom             a.u.   MegaHertz   Gauss  10(-4) cm-1        Axes

              Baa    -0.0639    -2.464    -0.879    -0.822  0.0000  0.0000  1.0000
     1 N(14)  Bbb     0.0319     1.232     0.440     0.411  1.0000  0.0064  0.0000
              Bcc     0.0319     1.232     0.440     0.411 -0.0064  1.0000  0.0000
 
              Baa    -0.7256    52.503    18.734    17.513  0.0000  0.0000  1.0000
     2 O(17)  Bbb    -0.7037    50.918    18.169    16.984 -0.0000  1.0000  0.0000
              Bcc     1.4293  -103.420   -36.903   -34.497  1.0000  0.0000  0.0000
 
              Baa    -0.7256    52.503    18.734    17.513  0.0000  0.0000  1.0000
     3 O(17)  Bbb    -0.7037    50.918    18.169    16.984  0.8660  0.5000  0.0000
              Bcc     1.4293  -103.420   -36.903   -34.497 -0.5000  0.8660  0.0000
 
              Baa    -0.7256    52.503    18.734    17.513  0.0000  0.0000  1.0000
     4 O(17)  Bbb    -0.7037    50.918    18.169    16.984  0.8660 -0.5000 -0.0000
              Bcc     1.4293  -103.420   -36.903   -34.497  0.5000  0.8660  0.0000
 

 ---------------------------------------------------------------------------------

 1\1\GINC-GAMBA\SP\ROHF\Gen\N1O3(2)\IRIKURA\01-Oct-2023\0\\# rohf/gen g
 eom=check guess=check\\nitroxyl, ROHF/cc-pVTZ-F12\\0,2\N,0,0.,-0.00000
 02581,0.\O,0,-0.000000106,1.231553,0.\O,0,1.0665564606,-0.6157767953,0
 .\O,0,-1.0665563546,-0.6157769789,0.\\Version=ES64L-G16RevB.01\HF=-278
 .8794897\RMSD=1.214e-09\Dipole=0.,0.,0.\Quadrupole=-0.692457,-0.692457
 ,1.3849139,0.,0.,0.\PG=D03H [O(N1),3C2(O1)]\\@


 The arm of the moral universe is long, but it bends toward justice.
 -- Martin Luther King, Jr.
 Job cpu time:       0 days  0 hours  0 minutes 42.2 seconds.
 Elapsed time:       0 days  0 hours  0 minutes 11.0 seconds.
 File lengths (MBytes):  RWF=     23 Int=      0 D2E=      0 Chk=      5 Scr=      1
 Normal termination of Gaussian 16 at Sun Oct  1 00:38:06 2023.
