 Entering Gaussian System, Link 0=g16
 AtFile(1): pcseg2.gbs
            -H     0
            S   4   1.00
                  0.754732D+02           0.427821D-02
                  0.113575D+02           0.328672D-01
                  0.260081D+01           0.159578D+00
                  0.735503D+00           0.500000D+00
            S   1   1.00
                  0.231761D+00           1.0000000
            S   1   1.00
                  0.741675D-01           1.0000000
            P   1   1.00
                  0.160000D+01           1.0000000
            P   1   1.00
                  0.450000D+00           1.0000000
            D   1   1.00
                  0.125000D+01           1.0000000
            ****
            -C     0
            S   7   1.00
                  0.731999D+04           0.695369D-03
                  0.109818D+04           0.537138D-02
                  0.250014D+03           0.274734D-01
                  0.707586D+02           0.105078D+00
                  0.228595D+02           0.291262D+00
                  0.803936D+01           0.500000D+00
                  0.289309D+01           0.362224D+00
            S   2   1.00
                  0.521640D+01          -0.957844D-01
                  0.556124D+00           0.500000D+00
            S   1   1.00
                  0.228813D+00           1.0000000
            S   1   1.00
                  0.936338D-01           1.0000000
            P   4   1.00
                  0.339855D+02           0.818395D-02
                  0.772957D+01           0.586921D-01
                  0.224954D+01           0.222514D+00
                  0.767681D+00           0.500000D+00
            P   1   1.00
                  0.263283D+00           1.0000000
            P   1   1.00
                  0.848744D-01           1.0000000
            D   1   1.00
                  0.140000D+01           1.0000000
            D   1   1.00
                  0.450000D+00           1.0000000
            F   1   1.00
                  0.950000D+00           1.0000000
            ****
            -O     0
            S   7   1.00
                  0.135887D+05           0.665492D-03
                  0.203847D+04           0.514222D-02
                  0.464041D+03           0.263472D-01
                  0.131339D+03           0.101500D+00
                  0.425340D+02           0.285877D+00
                  0.150429D+02           0.500000D+00
                  0.546616D+01           0.368211D+00
            S   2   1.00
                  0.100915D+02          -0.100084D+00
                  0.110429D+01           0.500000D+00
            S   1   1.00
                  0.448082D+00           1.0000000
            S   1   1.00
                  0.175325D+00           1.0000000
            P   4   1.00
                  0.608220D+02           0.908253D-02
                  0.140332D+02           0.645878D-01
                  0.418244D+01           0.241502D+00
                  0.142490D+01           0.500000D+00
            P   1   1.00
                  0.478741D+00           1.0000000
            P   1   1.00
                  0.146257D+00           1.0000000
            D   1   1.00
                  0.220000D+01           1.0000000
            D   1   1.00
                  0.650000D+00           1.0000000
            F   1   1.00
                  0.110000D+01           1.0000000
            ****
            -N     0
            S   7   1.00
                  0.101643D+05           0.682757D-03
                  0.152481D+04           0.527488D-02
                  0.347119D+03           0.270037D-01
                  0.982389D+02           0.103673D+00
                  0.317799D+02           0.289575D+00
                  0.112240D+02           0.500000D+00
                  0.406611D+01           0.364621D+00
            S   2   1.00
                  0.747898D+01          -0.975681D-01
                  0.805040D+00           0.500000D+00
            S   1   1.00
                  0.324626D+00           1.0000000
            S   1   1.00
                  0.128132D+00           1.0000000
            P   4   1.00
                  0.482704D+02           0.829547D-02
                  0.110815D+02           0.596223D-01
                  0.326643D+01           0.227889D+00
                  0.111680D+01           0.500000D+00
            P   1   1.00
                  0.382049D+00           1.0000000
            P   1   1.00
                  0.121222D+00           1.0000000
            D   1   1.00
                  0.180000D+01           1.0000000
            D   1   1.00
                  0.550000D+00           1.0000000
            F   1   1.00
                  0.102000D+01           1.0000000
            ****
            -F     0
            S   7   1.00
                  0.174507D+05           0.655972D-03
                  0.261768D+04           0.506944D-02
                  0.595857D+03           0.259899D-01
                  0.168651D+03           0.100353D+00
                  0.546654D+02           0.284095D+00
                  0.193717D+02           0.500000D+00
                  0.706202D+01           0.370721D+00
            S   2   1.00
                  0.131197D+02          -0.101997D+00
                  0.145046D+01           0.500000D+00
            S   1   1.00
                  0.588255D+00           1.0000000
            S   1   1.00
                  0.227960D+00           1.0000000
            P   4   1.00
                  0.779407D+02           0.931135D-02
                  0.180425D+02           0.663964D-01
                  0.542342D+01           0.246386D+00
                  0.184876D+01           0.500000D+00
            P   1   1.00
                  0.617455D+00           1.0000000
            P   1   1.00
                  0.185496D+00           1.0000000
            D   1   1.00
                  0.280000D+01           1.0000000
            D   1   1.00
                  0.800000D+00           1.0000000
            F   1   1.00
                  0.120000D+01           1.0000000
            ****
            -Cl     0
            S   8   1.00
                  0.154272D+06           0.222473D-03
                  0.231232D+05           0.172590D-02
                  0.526257D+04           0.899286D-02
                  0.148995D+04           0.367724D-01
                  0.485417D+03           0.121446D+00
                  0.174634D+03           0.304148D+00
                  0.672393D+02           0.500000D+00
                  0.265780D+02           0.360252D+00
            S   3   1.00
                  0.131826D+03          -0.531330D-01
                  0.400703D+02          -0.233346D+00
                  0.789448D+01           0.500000D+00
            S   2   1.00
                  0.427711D+01           0.500000D+00
                  0.196233D+01           0.370517D+00
            S   1   1.00
                  0.520793D+00           1.0000000
            S   1   1.00
                  0.181633D+00           1.0000000
            P   7   1.00
                  0.124440D+04           0.988206D-03
                  0.295109D+03           0.829674D-02
                  0.947224D+02           0.430906D-01
                  0.352588D+02           0.148443D+00
                  0.144211D+02           0.344744D+00
                  0.610371D+01           0.500000D+00
                  0.258886D+01           0.348278D+00
            P   2   1.00
                  0.109447D+02          -0.196768D-01
                  0.104413D+01           0.500000D+00
            P   1   1.00
                  0.376184D+00           1.0000000
            P   1   1.00
                  0.120613D+00           1.0000000
            D   1   1.00
                  0.231000D+01           1.0000000
            D   1   1.00
                  0.520000D+00           1.0000000
            F   1   1.00
                  0.720000D+00           1.0000000
            ****
            -S     0
            S   8   1.00
                  0.134700D+06           0.226231D-03
                  0.201904D+05           0.175488D-02
                  0.459528D+04           0.914190D-02
                  0.130109D+04           0.373551D-01
                  0.423902D+03           0.123121D+00
                  0.152485D+03           0.306801D+00
                  0.586925D+02           0.500000D+00
                  0.231461D+02           0.354358D+00
            S   3   1.00
                  0.116327D+03          -0.491772D-01
                  0.352841D+02          -0.215962D+00
                  0.677831D+01           0.500000D+00
            S   2   1.00
                  0.360404D+01           0.500000D+00
                  0.164871D+01           0.366278D+00
            S   1   1.00
                  0.421821D+00           1.0000000
            S   1   1.00
                  0.147554D+00           1.0000000
            P   7   1.00
                  0.104863D+04           0.105273D-02
                  0.248717D+03           0.879338D-02
                  0.797887D+02           0.453358D-01
                  0.296023D+02           0.154476D+00
                  0.120627D+02           0.352366D+00
                  0.507628D+01           0.500000D+00
                  0.213375D+01           0.346429D+00
            P   2   1.00
                  0.928958D+01          -0.185932D-01
                  0.837819D+00           0.500000D+00
            P   1   1.00
                  0.301495D+00           1.0000000
            P   1   1.00
                  0.974740D-01           1.0000000
            D   1   1.00
                  0.210000D+01           1.0000000
            D   1   1.00
                  0.480000D+00           1.0000000
            F   1   1.00
                  0.660000D+00           1.0000000
            ****
            -Br     0
            S    10   1.00
                  0.233625D+07           0.532336D-04
                  0.349961D+06           0.413715D-03
                  0.796444D+05           0.217123D-02
                  0.225555D+05           0.910109D-02
                  0.735546D+04           0.323789D-01
                  0.265352D+04           0.988755D-01
                  0.103517D+04           0.248138D+00
                  0.422205D+03           0.474328D+00
                  0.180035D+03           0.500000D+00
                  0.793308D+02           0.187769D+00
            S    4   1.00
                  0.620834D+03          -0.226511D-01
                  0.190829D+03          -0.109497D+00
                  0.312505D+02           0.500000D+00
                  0.135270D+02           0.492812D+00
            S    2   1.00
                  0.216097D+02          -0.165418D+00
                  0.372566D+01           0.500000D+00
            S    1   1.00
                  0.169770D+01           1.0000000
            S    1   1.00
                  0.489332D+00           1.0000000
            S    1   1.00
                  0.175712D+00           1.0000000
            P    8   1.00
                  0.960829D+04           0.478974D-03
                  0.227618D+04           0.417853D-02
                  0.736723D+03           0.229315D-01
                  0.281579D+03           0.892653D-01
                  0.118395D+03           0.255288D+00
                  0.527481D+02           0.479074D+00
                  0.245098D+02           0.500000D+00
                  0.112009D+02           0.200944D+00
            P    4   1.00
                  0.587849D+02          -0.189674D-01
                  0.918962D+01           0.264104D+00
                  0.413895D+01           0.500000D+00
                  0.184225D+01           0.319316D+00
            P    1   1.00
                  0.713862D+00           1.0000000
            P    1   1.00
                  0.274232D+00           1.0000000
            P    1   1.00
                  0.944411D-01           1.0000000
            D    7   1.00
                  0.398470D+03           0.204066D-02
                  0.118967D+03           0.175171D-01
                  0.450197D+02           0.829708D-01
                  0.190320D+02           0.236284D+00
                  0.855686D+01           0.428468D+00
                  0.382950D+01           0.500000D+00
                  0.166291D+01           0.349360D+00
            D    1   1.00
                  0.672953D+00           1.0000000
            D    1   1.00
                  0.252000D+00           1.0000000
            F    1   1.00
                  0.530000D+00           1.0000000
            ****
            -Si     0
            S    8   1.00
                  0.996133D+05           0.235546D-03
                  0.149311D+05           0.182707D-02
                  0.339820D+04           0.951425D-02
                  0.962140D+03           0.388172D-01
                  0.313430D+03           0.127328D+00
                  0.112683D+03           0.313522D+00
                  0.433372D+02           0.500000D+00
                  0.170029D+02           0.340347D+00
            S    3   1.00
                  0.884208D+02          -0.404451D-01
                  0.266756D+02          -0.178059D+00
                  0.479640D+01           0.500000D+00
            S    2   1.00
                  0.239385D+01           0.500000D+00
                  0.108333D+01           0.338016D+00
            S    1   1.00
                  0.252420D+00           1.0000000
            S    1   1.00
                  0.891210D-01           1.0000000
            P    7   1.00
                  0.709901D+03           0.123028D-02
                  0.168426D+03           0.101366D-01
                  0.539946D+02           0.511840D-01
                  0.198646D+02           0.169967D+00
                  0.801369D+01           0.370717D+00
                  0.331870D+01           0.500000D+00
                  0.136112D+01           0.344128D+00
            P    2   1.00
                  0.622158D+01          -0.166609D-01
                  0.503049D+00           0.500000D+00
            P    1   1.00
                  0.179848D+00           1.0000000
            P    1   1.00
                  0.591912D-01           1.0000000
            D    1   1.00
                  0.168000D+01           1.0000000
            D    1   1.00
                  0.380000D+00           1.0000000
            F    1   1.00
                  0.540000D+00           1.0000000
            ****
            -P     0
            S    8   1.00
                  0.116416D+06           0.230715D-03
                  0.174500D+05           0.178960D-02
                  0.397149D+04           0.932116D-02
                  0.112447D+04           0.380591D-01
                  0.366347D+03           0.125148D+00
                  0.131757D+03           0.310022D+00
                  0.506988D+02           0.500000D+00
                  0.199436D+02           0.347528D+00
            S    3   1.00
                  0.101878D+03          -0.446755D-01
                  0.308249D+02          -0.196376D+00
                  0.573688D+01           0.500000D+00
            S    2   1.00
                  0.296868D+01           0.500000D+00
                  0.135315D+01           0.355098D+00
            S    1   1.00
                  0.332196D+00           1.0000000
            S    1   1.00
                  0.116229D+00           1.0000000
            P    7   1.00
                  0.873928D+03           0.112375D-02
                  0.207298D+03           0.933330D-02
                  0.664628D+02           0.477213D-01
                  0.245665D+02           0.160733D+00
                  0.996820D+01           0.359760D+00
                  0.416536D+01           0.500000D+00
                  0.173022D+01           0.346593D+00
            P    2   1.00
                  0.772530D+01          -0.175718D-01
                  0.657252D+00           0.500000D+00
            P    1   1.00
                  0.239903D+00           1.0000000
            P    1   1.00
                  0.800988D-01           1.0000000
            D    1   1.00
                  0.189000D+01           1.0000000
            D    1   1.00
                  0.430000D+00           1.0000000
            F    1   1.00
                  0.600000D+00           1.0000000
            ****
            
 Initial command:
 /usr/local/apps/g16_b01_avx/g16/l1.exe "/wrk/irikura/Gau-26151.inp" -scrdir="/wrk/irikura/"
 Entering Link 1 = /usr/local/apps/g16_b01_avx/g16/l1.exe PID=     26153.
  
 Copyright (c) 1988-2017, Gaussian, Inc.  All Rights Reserved.
  
 This is part of the Gaussian(R) 16 program.  It is based on
 the Gaussian(R) 09 system (copyright 2009, Gaussian, Inc.),
 the Gaussian(R) 03 system (copyright 2003, Gaussian, Inc.),
 the Gaussian(R) 98 system (copyright 1998, Gaussian, Inc.),
 the Gaussian(R) 94 system (copyright 1995, Gaussian, Inc.),
 the Gaussian 92(TM) system (copyright 1992, Gaussian, Inc.),
 the Gaussian 90(TM) system (copyright 1990, Gaussian, Inc.),
 the Gaussian 88(TM) system (copyright 1988, Gaussian, Inc.),
 the Gaussian 86(TM) system (copyright 1986, Carnegie Mellon
 University), and the Gaussian 82(TM) system (copyright 1983,
 Carnegie Mellon University). Gaussian is a federally registered
 trademark of Gaussian, Inc.
  
 This software contains proprietary and confidential information,
 including trade secrets, belonging to Gaussian, Inc.
  
 This software is provided under written license and may be
 used, copied, transmitted, or stored only in accord with that
 written license.
  
 The following legend is applicable only to US Government
 contracts under FAR:
  
                    RESTRICTED RIGHTS LEGEND
  
 Use, reproduction and disclosure by the US Government is
 subject to restrictions as set forth in subparagraphs (a)
 and (c) of the Commercial Computer Software - Restricted
 Rights clause in FAR 52.227-19.
  
 Gaussian, Inc.
 340 Quinnipiac St., Bldg. 40, Wallingford CT 06492
  
  
 ---------------------------------------------------------------
 Warning -- This program may not be used in any manner that
 competes with the business of Gaussian, Inc. or will provide
 assistance to any competitor of Gaussian, Inc.  The licensee
 of this program is prohibited from giving any competitor of
 Gaussian, Inc. access to this program.  By using this program,
 the user acknowledges that Gaussian, Inc. is engaged in the
 business of creating and licensing software in the field of
 computational chemistry and represents and warrants to the
 licensee that it is not a competitor of Gaussian, Inc. and that
 it will not use this program in any manner prohibited above.
 ---------------------------------------------------------------
  

 Cite this work as:
 Gaussian 16, Revision B.01,
 M. J. Frisch, G. W. Trucks, H. B. Schlegel, G. E. Scuseria, 
 M. A. Robb, J. R. Cheeseman, G. Scalmani, V. Barone, 
 G. A. Petersson, H. Nakatsuji, X. Li, M. Caricato, A. V. Marenich, 
 J. Bloino, B. G. Janesko, R. Gomperts, B. Mennucci, H. P. Hratchian, 
 J. V. Ortiz, A. F. Izmaylov, J. L. Sonnenberg, D. Williams-Young, 
 F. Ding, F. Lipparini, F. Egidi, J. Goings, B. Peng, A. Petrone, 
 T. Henderson, D. Ranasinghe, V. G. Zakrzewski, J. Gao, N. Rega, 
 G. Zheng, W. Liang, M. Hada, M. Ehara, K. Toyota, R. Fukuda, 
 J. Hasegawa, M. Ishida, T. Nakajima, Y. Honda, O. Kitao, H. Nakai, 
 T. Vreven, K. Throssell, J. A. Montgomery, Jr., J. E. Peralta, 
 F. Ogliaro, M. J. Bearpark, J. J. Heyd, E. N. Brothers, K. N. Kudin, 
 V. N. Staroverov, T. A. Keith, R. Kobayashi, J. Normand, 
 K. Raghavachari, A. P. Rendell, J. C. Burant, S. S. Iyengar, 
 J. Tomasi, M. Cossi, J. M. Millam, M. Klene, C. Adamo, R. Cammi, 
 J. W. Ochterski, R. L. Martin, K. Morokuma, O. Farkas, 
 J. B. Foresman, and D. J. Fox, Gaussian, Inc., Wallingford CT, 2016.
 
 ******************************************
 Gaussian 16:  ES64L-G16RevB.01 20-Dec-2017
                17-Jun-2022 
 ******************************************
 %mem=1000mw
 %nprocs=12
 Will use up to   12 processors via shared memory.
 --------------------
 # b3lyp/gen opt freq
 --------------------
 1/18=20,19=15,26=3,38=1/1,3;
 2/9=110,12=2,17=6,18=5,40=1/2;
 3/5=7,11=2,25=1,30=1,71=1,74=-5/1,2,3;
 4//1;
 5/5=2,38=5/2;
 6/7=2,8=2,9=2,10=2,28=1/1;
 7//1,2,3,16;
 1/18=20,19=15,26=3/3(2);
 2/9=110/2;
 99//99;
 2/9=110/2;
 3/5=7,6=1,11=2,25=1,30=1,71=1,74=-5,82=7/1,2,3;
 4/5=5,16=3,69=1/1;
 5/5=2,38=5/2;
 7//1,2,3,16;
 1/18=20,19=15,26=3/3(-5);
 2/9=110/2;
 6/7=2,8=2,9=2,10=2,19=2,28=1/1;
 99/9=1/99;
 --------------------------------------------
 Bicyclo[2.2.1]hepta-2,5-diene, B3LYP/pcseg-2
 --------------------------------------------
 Symbolic Z-matrix:
 Charge =  0 Multiplicity = 1
 C                     0.        0.        1.35525 
 C                     0.        1.12156   0.27265 
 C                     0.       -1.12156   0.27265 
 C                     1.24153   0.6654   -0.52052 
 C                     1.24153  -0.6654   -0.52052 
 C                    -1.24153   0.6654   -0.52052 
 C                    -1.24153  -0.6654   -0.52052 
 H                    -0.8975    0.        1.97516 
 H                     0.8975    0.        1.97516 
 H                     0.        2.15565   0.60919 
 H                     0.       -2.15565   0.60919 
 H                     1.92909   1.33292  -1.01986 
 H                     1.92909  -1.33292  -1.01986 
 H                    -1.92909   1.33292  -1.01986 
 H                    -1.92909  -1.33292  -1.01986 
 

 GradGradGradGradGradGradGradGradGradGradGradGradGradGradGradGradGradGrad
 Berny optimization.
 Initialization pass.
                           ----------------------------
                           !    Initial Parameters    !
                           ! (Angstroms and Degrees)  !
 --------------------------                            --------------------------
 ! Name  Definition              Value          Derivative Info.                !
 --------------------------------------------------------------------------------
 ! R1    R(1,2)                  1.5588         estimate D2E/DX2                !
 ! R2    R(1,3)                  1.5588         estimate D2E/DX2                !
 ! R3    R(1,8)                  1.0908         estimate D2E/DX2                !
 ! R4    R(1,9)                  1.0908         estimate D2E/DX2                !
 ! R5    R(2,4)                  1.5423         estimate D2E/DX2                !
 ! R6    R(2,6)                  1.5423         estimate D2E/DX2                !
 ! R7    R(2,10)                 1.0875         estimate D2E/DX2                !
 ! R8    R(3,5)                  1.5423         estimate D2E/DX2                !
 ! R9    R(3,7)                  1.5423         estimate D2E/DX2                !
 ! R10   R(3,11)                 1.0875         estimate D2E/DX2                !
 ! R11   R(4,5)                  1.3308         estimate D2E/DX2                !
 ! R12   R(4,12)                 1.0806         estimate D2E/DX2                !
 ! R13   R(5,13)                 1.0806         estimate D2E/DX2                !
 ! R14   R(6,7)                  1.3308         estimate D2E/DX2                !
 ! R15   R(6,14)                 1.0806         estimate D2E/DX2                !
 ! R16   R(7,15)                 1.0806         estimate D2E/DX2                !
 ! A1    A(2,1,3)               92.0254         estimate D2E/DX2                !
 ! A2    A(2,1,8)              113.247          estimate D2E/DX2                !
 ! A3    A(2,1,9)              113.247          estimate D2E/DX2                !
 ! A4    A(3,1,8)              113.247          estimate D2E/DX2                !
 ! A5    A(3,1,9)              113.247          estimate D2E/DX2                !
 ! A6    A(8,1,9)              110.7341         estimate D2E/DX2                !
 ! A7    A(1,2,4)               98.3007         estimate D2E/DX2                !
 ! A8    A(1,2,6)               98.3007         estimate D2E/DX2                !
 ! A9    A(1,2,10)             117.9854         estimate D2E/DX2                !
 ! A10   A(4,2,6)              107.2205         estimate D2E/DX2                !
 ! A11   A(4,2,10)             116.13           estimate D2E/DX2                !
 ! A12   A(6,2,10)             116.13           estimate D2E/DX2                !
 ! A13   A(1,3,5)               98.3007         estimate D2E/DX2                !
 ! A14   A(1,3,7)               98.3007         estimate D2E/DX2                !
 ! A15   A(1,3,11)             117.9854         estimate D2E/DX2                !
 ! A16   A(5,3,7)              107.2205         estimate D2E/DX2                !
 ! A17   A(5,3,11)             116.13           estimate D2E/DX2                !
 ! A18   A(7,3,11)             116.13           estimate D2E/DX2                !
 ! A19   A(2,4,5)              107.2038         estimate D2E/DX2                !
 ! A20   A(2,4,12)             124.5518         estimate D2E/DX2                !
 ! A21   A(5,4,12)             128.1515         estimate D2E/DX2                !
 ! A22   A(3,5,4)              107.2038         estimate D2E/DX2                !
 ! A23   A(3,5,13)             124.5518         estimate D2E/DX2                !
 ! A24   A(4,5,13)             128.1515         estimate D2E/DX2                !
 ! A25   A(2,6,7)              107.2038         estimate D2E/DX2                !
 ! A26   A(2,6,14)             124.5518         estimate D2E/DX2                !
 ! A27   A(7,6,14)             128.1515         estimate D2E/DX2                !
 ! A28   A(3,7,6)              107.2038         estimate D2E/DX2                !
 ! A29   A(3,7,15)             124.5518         estimate D2E/DX2                !
 ! A30   A(6,7,15)             128.1515         estimate D2E/DX2                !
 ! D1    D(3,1,2,4)            -54.4415         estimate D2E/DX2                !
 ! D2    D(3,1,2,6)             54.4415         estimate D2E/DX2                !
 ! D3    D(3,1,2,10)           180.0            estimate D2E/DX2                !
 ! D4    D(8,1,2,4)           -170.8669         estimate D2E/DX2                !
 ! D5    D(8,1,2,6)            -61.9839         estimate D2E/DX2                !
 ! D6    D(8,1,2,10)            63.5746         estimate D2E/DX2                !
 ! D7    D(9,1,2,4)             61.9839         estimate D2E/DX2                !
 ! D8    D(9,1,2,6)            170.8669         estimate D2E/DX2                !
 ! D9    D(9,1,2,10)           -63.5746         estimate D2E/DX2                !
 ! D10   D(2,1,3,5)             54.4415         estimate D2E/DX2                !
 ! D11   D(2,1,3,7)            -54.4415         estimate D2E/DX2                !
 ! D12   D(2,1,3,11)           180.0            estimate D2E/DX2                !
 ! D13   D(8,1,3,5)            170.8669         estimate D2E/DX2                !
 ! D14   D(8,1,3,7)             61.9839         estimate D2E/DX2                !
 ! D15   D(8,1,3,11)           -63.5746         estimate D2E/DX2                !
 ! D16   D(9,1,3,5)            -61.9839         estimate D2E/DX2                !
 ! D17   D(9,1,3,7)           -170.8669         estimate D2E/DX2                !
 ! D18   D(9,1,3,11)            63.5746         estimate D2E/DX2                !
 ! D19   D(1,2,4,5)             36.2602         estimate D2E/DX2                !
 ! D20   D(1,2,4,12)          -147.0007         estimate D2E/DX2                !
 ! D21   D(6,2,4,5)            -65.1577         estimate D2E/DX2                !
 ! D22   D(6,2,4,12)           111.5815         estimate D2E/DX2                !
 ! D23   D(10,2,4,5)           163.1133         estimate D2E/DX2                !
 ! D24   D(10,2,4,12)          -20.1475         estimate D2E/DX2                !
 ! D25   D(1,2,6,7)            -36.2602         estimate D2E/DX2                !
 ! D26   D(1,2,6,14)           147.0007         estimate D2E/DX2                !
 ! D27   D(4,2,6,7)             65.1577         estimate D2E/DX2                !
 ! D28   D(4,2,6,14)          -111.5815         estimate D2E/DX2                !
 ! D29   D(10,2,6,7)          -163.1133         estimate D2E/DX2                !
 ! D30   D(10,2,6,14)           20.1475         estimate D2E/DX2                !
 ! D31   D(1,3,5,4)            -36.2602         estimate D2E/DX2                !
 ! D32   D(1,3,5,13)           147.0007         estimate D2E/DX2                !
 ! D33   D(7,3,5,4)             65.1577         estimate D2E/DX2                !
 ! D34   D(7,3,5,13)          -111.5815         estimate D2E/DX2                !
 ! D35   D(11,3,5,4)          -163.1133         estimate D2E/DX2                !
 ! D36   D(11,3,5,13)           20.1475         estimate D2E/DX2                !
 ! D37   D(1,3,7,6)             36.2602         estimate D2E/DX2                !
 ! D38   D(1,3,7,15)          -147.0007         estimate D2E/DX2                !
 ! D39   D(5,3,7,6)            -65.1577         estimate D2E/DX2                !
 ! D40   D(5,3,7,15)           111.5815         estimate D2E/DX2                !
 ! D41   D(11,3,7,6)           163.1133         estimate D2E/DX2                !
 ! D42   D(11,3,7,15)          -20.1475         estimate D2E/DX2                !
 ! D43   D(2,4,5,3)              0.0            estimate D2E/DX2                !
 ! D44   D(2,4,5,13)           176.5846         estimate D2E/DX2                !
 ! D45   D(12,4,5,3)          -176.5846         estimate D2E/DX2                !
 ! D46   D(12,4,5,13)            0.0            estimate D2E/DX2                !
 ! D47   D(2,6,7,3)              0.0            estimate D2E/DX2                !
 ! D48   D(2,6,7,15)          -176.5846         estimate D2E/DX2                !
 ! D49   D(14,6,7,3)           176.5846         estimate D2E/DX2                !
 ! D50   D(14,6,7,15)            0.0            estimate D2E/DX2                !
 --------------------------------------------------------------------------------
 Trust Radius=3.00D-01 FncErr=1.00D-07 GrdErr=1.00D-06 EigMax=2.50D+02 EigMin=1.00D-04
 Number of steps in this run=    100 maximum allowed number of steps=    100.
 GradGradGradGradGradGradGradGradGradGradGradGradGradGradGradGradGradGrad

                          Input orientation:                          
 ---------------------------------------------------------------------
 Center     Atomic      Atomic             Coordinates (Angstroms)
 Number     Number       Type             X           Y           Z
 ---------------------------------------------------------------------
      1          6           0        0.000000    0.000000    1.355248
      2          6           0        0.000000    1.121559    0.272652
      3          6           0        0.000000   -1.121559    0.272652
      4          6           0        1.241530    0.665398   -0.520524
      5          6           0        1.241530   -0.665398   -0.520524
      6          6           0       -1.241530    0.665398   -0.520524
      7          6           0       -1.241530   -0.665398   -0.520524
      8          1           0       -0.897501    0.000000    1.975155
      9          1           0        0.897501    0.000000    1.975155
     10          1           0        0.000000    2.155649    0.609194
     11          1           0        0.000000   -2.155649    0.609194
     12          1           0        1.929093    1.332924   -1.019860
     13          1           0        1.929093   -1.332924   -1.019860
     14          1           0       -1.929093    1.332924   -1.019860
     15          1           0       -1.929093   -1.332924   -1.019860
 ---------------------------------------------------------------------
                    Distance matrix (angstroms):
                    1          2          3          4          5
     1  C    0.000000
     2  C    1.558816   0.000000
     3  C    1.558816   2.243118   0.000000
     4  C    2.345777   1.542274   2.315975   0.000000
     5  C    2.345777   2.315975   1.542274   1.330796   0.000000
     6  C    2.345777   1.542274   2.315975   2.483060   2.817198
     7  C    2.345777   2.315975   1.542274   2.817198   2.483060
     8  H    1.090776   2.227537   2.227537   3.353598   3.353598
     9  H    1.090776   2.227537   2.227537   2.605672   2.605672
    10  H    2.281100   1.087475   3.294443   2.244662   3.282677
    11  H    2.281100   3.294443   1.087475   3.282677   2.244662
    12  H    3.337548   2.331665   3.378827   1.080588   2.171490
    13  H    3.337548   3.378827   2.331665   2.171490   1.080588
    14  H    3.337548   2.331665   3.378827   3.278380   3.780936
    15  H    3.337548   3.378827   2.331665   3.780936   3.278380
                    6          7          8          9         10
     6  C    0.000000
     7  C    1.330796   0.000000
     8  H    2.605672   2.605672   0.000000
     9  H    3.353598   3.353598   1.795002   0.000000
    10  H    2.244662   3.282677   2.705214   2.705214   0.000000
    11  H    3.282677   2.244662   2.705214   2.705214   4.311298
    12  H    3.278380   3.780936   4.328560   3.436711   2.655578
    13  H    3.780936   3.278380   4.328560   3.436711   4.306432
    14  H    1.080588   2.171490   3.436711   4.328560   2.655578
    15  H    2.171490   1.080588   3.436711   4.328560   4.306432
                   11         12         13         14         15
    11  H    0.000000
    12  H    4.306432   0.000000
    13  H    2.655578   2.665848   0.000000
    14  H    4.306432   3.858186   4.689600   0.000000
    15  H    2.655578   4.689600   3.858186   2.665848   0.000000
 Stoichiometry    C7H8
 Framework group  C2V[C2(C),SGV(C2H2),SGV'(H2),X(C4H4)]
 Deg. of freedom    12
 Full point group                 C2V     NOp   4
 Largest Abelian subgroup         C2V     NOp   4
 Largest concise Abelian subgroup C2V     NOp   4
                         Standard orientation:                         
 ---------------------------------------------------------------------
 Center     Atomic      Atomic             Coordinates (Angstroms)
 Number     Number       Type             X           Y           Z
 ---------------------------------------------------------------------
      1          6           0        0.000000    0.000000    1.355248
      2          6           0        0.000000    1.121559    0.272652
      3          6           0       -0.000000   -1.121559    0.272652
      4          6           0        1.241530    0.665398   -0.520524
      5          6           0        1.241530   -0.665398   -0.520524
      6          6           0       -1.241530    0.665398   -0.520524
      7          6           0       -1.241530   -0.665398   -0.520524
      8          1           0       -0.897501    0.000000    1.975155
      9          1           0        0.897501   -0.000000    1.975155
     10          1           0        0.000000    2.155649    0.609194
     11          1           0       -0.000000   -2.155649    0.609194
     12          1           0        1.929093    1.332924   -1.019860
     13          1           0        1.929093   -1.332924   -1.019860
     14          1           0       -1.929093    1.332924   -1.019860
     15          1           0       -1.929093   -1.332924   -1.019860
 ---------------------------------------------------------------------
 Rotational constants (GHZ):           4.2977262           3.6038132           3.1868391
 General basis read from cards:  (5D, 7F)
 There are   112 symmetry adapted cartesian basis functions of A1  symmetry.
 There are    72 symmetry adapted cartesian basis functions of A2  symmetry.
 There are    84 symmetry adapted cartesian basis functions of B1  symmetry.
 There are    97 symmetry adapted cartesian basis functions of B2  symmetry.
 There are    97 symmetry adapted basis functions of A1  symmetry.
 There are    65 symmetry adapted basis functions of A2  symmetry.
 There are    75 symmetry adapted basis functions of B1  symmetry.
 There are    85 symmetry adapted basis functions of B2  symmetry.
   322 basis functions,   501 primitive gaussians,   365 cartesian basis functions
    25 alpha electrons       25 beta electrons
       nuclear repulsion energy       287.8271673125 Hartrees.
 NAtoms=   15 NActive=   15 NUniq=    6 SFac= 4.00D+00 NAtFMM=   60 NAOKFM=F Big=F
 Integral buffers will be    131072 words long.
 Raffenetti 2 integral format.
 Two-electron integral symmetry is turned on.
 One-electron integrals computed using PRISM.
 NBasis=   322 RedAO= T EigKep=  4.21D-05  NBF=    97    65    75    85
 NBsUse=   322 1.00D-06 EigRej= -1.00D+00 NBFU=    97    65    75    85
 ExpMin= 7.42D-02 ExpMax= 7.32D+03 ExpMxC= 2.50D+02 IAcc=3 IRadAn=         5 AccDes= 0.00D+00
 Harris functional with IExCor=  402 and IRadAn=       5 diagonalized for initial guess.
 HarFok:  IExCor=  402 AccDes= 0.00D+00 IRadAn=         5 IDoV= 1 UseB2=F ITyADJ=14
 ICtDFT=  3500011 ScaDFX=  1.000000  1.000000  1.000000  1.000000
 FoFCou: FMM=F IPFlag=           0 FMFlag=      100000 FMFlg1=           0
         NFxFlg=           0 DoJE=T BraDBF=F KetDBF=T FulRan=T
         wScrn=  0.000000 ICntrl=       500 IOpCl=  0 I1Cent=   200000004 NGrid=           0
         NMat0=    1 NMatS0=      1 NMatT0=    0 NMatD0=    1 NMtDS0=    0 NMtDT0=    0
 Petite list used in FoFCou.
 Initial guess orbital symmetries:
       Occupied  (A1) (B1) (A1) (A2) (B2) (B2) (A1) (A1) (B1) (A1)
                 (B2) (A1) (A2) (A1) (B2) (B1) (B1) (A1) (A1) (B2)
                 (B1) (B2) (A2) (A1) (B1)
       Virtual   (B2) (A2) (A1) (A1) (B2) (B1) (B1) (A1) (B2) (A1)
                 (A2) (B1) (A1) (B2) (A2) (A1) (B2) (A1) (B1) (B2)
                 (A2) (B1) (A1) (B1) (A2) (B2) (B2) (B1) (A1) (B2)
                 (A1) (B1) (A1) (A2) (A1) (B2) (A1) (B2) (B1) (A2)
                 (A1) (B2) (B1) (A2) (B2) (A1) (A2) (A2) (B2) (A1)
                 (A1) (B2) (B1) (B2) (A1) (B2) (A2) (B1) (A1) (B1)
                 (A1) (B1) (A1) (A2) (A1) (B2) (B1) (B1) (B2) (A1)
                 (A2) (A1) (B1) (B1) (B2) (A2) (A2) (A1) (B2) (A2)
                 (B1) (A1) (B2) (A1) (B2) (A1) (B1) (A1) (B1) (B2)
                 (B1) (B2) (B1) (A1) (A2) (B2) (A1) (A2) (A1) (A2)
                 (B2) (A2) (B1) (B2) (A1) (B2) (A1) (B1) (A2) (B2)
                 (B1) (A2) (A1) (A2) (A1) (B2) (B1) (A1) (B2) (B1)
                 (A1) (A2) (B2) (B1) (B2) (A1) (B1) (B2) (A1) (A2)
                 (A2) (A1) (B2) (A2) (B1) (A1) (B2) (A1) (B1) (B2)
                 (A1) (A2) (B1) (B2) (A1) (B1) (B2) (B1) (A2) (A1)
                 (A1) (A2) (B2) (B1) (B1) (A1) (A1) (B1) (B2) (A1)
                 (A2) (B2) (B1) (A1) (B1) (A1) (B2) (A2) (B1) (A2)
                 (B2) (A1) (A2) (B2) (A1) (B1) (B2) (A1) (B1) (A2)
                 (A1) (B2) (B1) (A1) (B2) (A2) (A1) (B1) (A2) (A1)
                 (B1) (B1) (B2) (A1) (A2) (B2) (A2) (B1) (A1) (A1)
                 (B2) (B1) (B2) (A2) (A1) (A2) (B1) (B2) (A2) (A1)
                 (B1) (B2) (B2) (A1) (A2) (A2) (A1) (B2) (B1) (A1)
                 (A2) (B2) (B1) (B2) (A1) (B1) (A2) (A1) (A2) (A1)
                 (B2) (A2) (B1) (B2) (A1) (B1) (B2) (B2) (A2) (A1)
                 (B1) (A2) (B1) (A1) (B2) (B1) (A2) (B2) (A1) (B2)
                 (B1) (A2) (B2) (A1) (A2) (B2) (B2) (B1) (A1) (B1)
                 (A2) (B2) (A1) (A2) (B2) (A1) (B1) (A2) (A1) (B1)
                 (B2) (A1) (A2) (A1) (B2) (B1) (A1) (A2) (B1) (B2)
                 (A1) (A1) (B2) (B1) (A2) (A1) (A2) (B2) (B1) (B2)
                 (A2) (B1) (B2) (A1) (A1) (A2) (B2)
 The electronic state of the initial guess is 1-A1.
 Requested convergence on RMS density matrix=1.00D-08 within 128 cycles.
 Requested convergence on MAX density matrix=1.00D-06.
 Requested convergence on             energy=1.00D-06.
 No special actions if energy rises.
 Integral accuracy reduced to 1.0D-05 until final iterations.
 Initial convergence to 1.0D-05 achieved.  Increase integral accuracy.
 SCF Done:  E(RB3LYP) =  -271.580855110     A.U. after   12 cycles
            NFock= 12  Conv=0.43D-08     -V/T= 2.0043

 **********************************************************************

            Population analysis using the SCF Density.

 **********************************************************************

 Orbital symmetries:
       Occupied  (B2) (A1) (A1) (B1) (A1) (A2) (B2) (A1) (B1) (B2)
                 (A1) (A1) (A2) (A1) (B2) (B1) (B1) (A1) (A1) (B2)
                 (B1) (B2) (A2) (A1) (B1)
       Virtual   (B2) (A1) (A2) (B2) (B1) (A1) (A1) (B1) (B2) (A2)
                 (A1) (A1) (B2) (B1) (A2) (B2) (A1) (A1) (B1) (B1)
                 (B2) (A2) (A1) (A2) (B2) (B1) (A1) (B2) (B2) (B1)
                 (A1) (A2) (A1) (B1) (B2) (A1) (B1) (B2) (A1) (A1)
                 (A2) (B1) (B2) (A2) (A1) (A2) (B2) (A2) (A1) (B2)
                 (A1) (B2) (B1) (B2) (A1) (B2) (A2) (B1) (A1) (B1)
                 (A1) (B1) (A2) (A1) (A1) (B1) (B2) (B1) (B2) (A1)
                 (A1) (A2) (B1) (B2) (B1) (A2) (A1) (A2) (B2) (A2)
                 (B1) (A1) (A1) (B2) (B2) (A1) (B1) (A1) (B2) (B1)
                 (B1) (B2) (B1) (A1) (A2) (B2) (A1) (A2) (A1) (A2)
                 (B2) (A2) (B2) (B1) (A1) (B2) (A1) (B1) (A2) (B2)
                 (B1) (A2) (A1) (A2) (A1) (B2) (B1) (A1) (B2) (B1)
                 (A1) (A2) (B2) (B1) (B2) (A1) (B1) (B2) (A1) (A2)
                 (A2) (A1) (B2) (A2) (B1) (A1) (B2) (A1) (B1) (B2)
                 (A1) (A2) (B1) (B2) (A1) (B1) (B2) (B1) (A2) (A1)
                 (A1) (A2) (B2) (B1) (B1) (A1) (A1) (B2) (B1) (A1)
                 (A2) (B2) (B1) (A1) (B1) (A1) (B2) (A2) (B1) (A2)
                 (B2) (A1) (A2) (B2) (A1) (B1) (B2) (A1) (A2) (B1)
                 (A1) (B2) (B1) (A1) (B2) (A1) (A2) (B1) (A2) (A1)
                 (B1) (B2) (B1) (A2) (A1) (B2) (A2) (B1) (A1) (A1)
                 (B1) (B2) (B2) (A2) (A1) (A2) (B1) (B2) (A1) (A2)
                 (B1) (B2) (B2) (A1) (A1) (A2) (B2) (A2) (B1) (A1)
                 (A2) (B2) (B1) (B1) (A1) (A2) (B2) (A1) (A2) (B2)
                 (A1) (A2) (B1) (B2) (A1) (B2) (B1) (B2) (A1) (A2)
                 (B1) (A2) (B1) (A1) (B2) (B1) (A2) (B2) (A1) (B2)
                 (B1) (A2) (B2) (A1) (A2) (B2) (B1) (B2) (B1) (A1)
                 (A2) (A1) (B2) (A2) (A1) (B2) (B1) (A2) (A1) (B1)
                 (B2) (A2) (A1) (B2) (A1) (B1) (A1) (A2) (B1) (B2)
                 (A1) (A1) (B2) (B1) (A2) (A1) (A2) (B1) (B2) (B2)
                 (A2) (B1) (B2) (A1) (A1) (A2) (B2)
 The electronic state is 1-A1.
 Alpha  occ. eigenvalues --  -10.18514 -10.18514 -10.17366 -10.16681 -10.16681
 Alpha  occ. eigenvalues --  -10.16587 -10.16587  -0.88945  -0.74967  -0.70806
 Alpha  occ. eigenvalues --   -0.69512  -0.56655  -0.55909  -0.52484  -0.50364
 Alpha  occ. eigenvalues --   -0.48232  -0.42018  -0.38989  -0.37353  -0.37060
 Alpha  occ. eigenvalues --   -0.35239  -0.33702  -0.33165  -0.26080  -0.23101
 Alpha virt. eigenvalues --   -0.02133   0.01833   0.02742   0.04280   0.04621
 Alpha virt. eigenvalues --    0.05201   0.07211   0.07335   0.07725   0.07887
 Alpha virt. eigenvalues --    0.11419   0.14664   0.15246   0.16175   0.17779
 Alpha virt. eigenvalues --    0.17834   0.17836   0.18915   0.19475   0.21578
 Alpha virt. eigenvalues --    0.23781   0.24186   0.25146   0.28687   0.28716
 Alpha virt. eigenvalues --    0.29324   0.29469   0.29700   0.30230   0.30755
 Alpha virt. eigenvalues --    0.32384   0.32492   0.33931   0.33968   0.35752
 Alpha virt. eigenvalues --    0.35899   0.36853   0.38471   0.38731   0.39946
 Alpha virt. eigenvalues --    0.41130   0.42673   0.45174   0.49817   0.51307
 Alpha virt. eigenvalues --    0.51676   0.51962   0.56230   0.58296   0.60398
 Alpha virt. eigenvalues --    0.62311   0.63126   0.63229   0.69169   0.75587
 Alpha virt. eigenvalues --    0.79467   0.79955   0.82935   0.82947   0.84311
 Alpha virt. eigenvalues --    0.85711   0.94688   0.94988   0.95241   0.98285
 Alpha virt. eigenvalues --    1.00332   1.00411   1.02315   1.02658   1.03544
 Alpha virt. eigenvalues --    1.04699   1.04746   1.05000   1.08436   1.09978
 Alpha virt. eigenvalues --    1.10501   1.14407   1.14717   1.15480   1.16834
 Alpha virt. eigenvalues --    1.18361   1.20389   1.21716   1.22393   1.23359
 Alpha virt. eigenvalues --    1.25349   1.30669   1.32393   1.35703   1.35724
 Alpha virt. eigenvalues --    1.37381   1.39065   1.39934   1.40401   1.43050
 Alpha virt. eigenvalues --    1.45039   1.45300   1.46247   1.53193   1.53788
 Alpha virt. eigenvalues --    1.55109   1.56251   1.60849   1.61616   1.62216
 Alpha virt. eigenvalues --    1.71792   1.73721   1.73768   1.74568   1.75250
 Alpha virt. eigenvalues --    1.78287   1.79842   1.80399   1.83043   1.83288
 Alpha virt. eigenvalues --    1.84635   1.85433   1.87217   1.89903   1.92949
 Alpha virt. eigenvalues --    1.95930   1.96643   1.98064   2.05716   2.06367
 Alpha virt. eigenvalues --    2.10819   2.12057   2.13491   2.15822   2.16435
 Alpha virt. eigenvalues --    2.27539   2.27973   2.29149   2.33751   2.37633
 Alpha virt. eigenvalues --    2.39180   2.40162   2.47352   2.50130   2.56199
 Alpha virt. eigenvalues --    2.64728   2.75157   2.81085   2.87096   2.89262
 Alpha virt. eigenvalues --    2.96964   3.09113   3.11763   3.12489   3.14543
 Alpha virt. eigenvalues --    3.14882   3.15274   3.19826   3.21076   3.23970
 Alpha virt. eigenvalues --    3.26696   3.28104   3.29359   3.30422   3.34373
 Alpha virt. eigenvalues --    3.36824   3.43022   3.53057   3.57330   3.59735
 Alpha virt. eigenvalues --    3.64132   3.64291   3.70431   3.71235   3.74616
 Alpha virt. eigenvalues --    3.74670   3.77199   3.79483   3.80875   3.82016
 Alpha virt. eigenvalues --    3.82162   3.89604   3.91650   3.92509   3.92798
 Alpha virt. eigenvalues --    3.94149   3.95182   3.96900   4.00902   4.02133
 Alpha virt. eigenvalues --    4.02889   4.03320   4.04062   4.05996   4.10566
 Alpha virt. eigenvalues --    4.12098   4.14776   4.15565   4.15650   4.16247
 Alpha virt. eigenvalues --    4.17228   4.18028   4.20941   4.21296   4.24116
 Alpha virt. eigenvalues --    4.26785   4.26997   4.28759   4.29225   4.29550
 Alpha virt. eigenvalues --    4.31790   4.34686   4.35428   4.37140   4.38270
 Alpha virt. eigenvalues --    4.41063   4.41894   4.43655   4.43993   4.47185
 Alpha virt. eigenvalues --    4.47625   4.49456   4.50326   4.51263   4.55366
 Alpha virt. eigenvalues --    4.56058   4.57183   4.57899   4.61219   4.61233
 Alpha virt. eigenvalues --    4.61396   4.61822   4.66956   4.67296   4.68112
 Alpha virt. eigenvalues --    4.70343   4.75090   4.75570   4.76500   4.84778
 Alpha virt. eigenvalues --    4.85142   4.85477   4.89669   4.89904   4.90489
 Alpha virt. eigenvalues --    4.93877   4.98633   4.98698   5.01466   5.01609
 Alpha virt. eigenvalues --    5.07013   5.07816   5.09623   5.10479   5.14187
 Alpha virt. eigenvalues --    5.14302   5.17778   5.20792   5.24008   5.25661
 Alpha virt. eigenvalues --    5.26273   5.31096   5.32167   5.34053   5.34967
 Alpha virt. eigenvalues --    5.36630   5.42489   5.42542   5.46324   5.50596
 Alpha virt. eigenvalues --    5.51322   5.51590   5.55744   5.58101   5.61403
 Alpha virt. eigenvalues --    5.64874   5.66121   5.67992   5.70529   5.70704
 Alpha virt. eigenvalues --    5.78626   5.78964   5.80763   5.85257   5.87299
 Alpha virt. eigenvalues --    5.90126   5.91766   5.94474   6.00778   6.02529
 Alpha virt. eigenvalues --    6.08319   6.19598   6.21309   6.22416   6.39786
 Alpha virt. eigenvalues --    6.49567   6.50676   6.56632   6.98532   7.87031
 Alpha virt. eigenvalues --    8.15863  10.40729
          Condensed to atoms (all electrons):
               1          2          3          4          5          6
     1  C    4.871257   0.372310   0.372310  -0.106060  -0.106060  -0.106060
     2  C    0.372310   4.879663  -0.112547   0.356619  -0.083809   0.356619
     3  C    0.372310  -0.112547   4.879663  -0.083809   0.356619  -0.083809
     4  C   -0.106060   0.356619  -0.083809   4.953246   0.629522  -0.064514
     5  C   -0.106060  -0.083809   0.356619   0.629522   4.953246  -0.040573
     6  C   -0.106060   0.356619  -0.083809  -0.064514  -0.040573   4.953246
     7  C   -0.106060  -0.083809   0.356619  -0.040573  -0.064514   0.629522
     8  H    0.422376  -0.032036  -0.032036   0.008936   0.008936   0.004117
     9  H    0.422376  -0.032036  -0.032036   0.004117   0.004117   0.008936
    10  H   -0.022500   0.459713   0.008185  -0.040452   0.009031  -0.040452
    11  H   -0.022500   0.008185   0.459713   0.009031  -0.040452   0.009031
    12  H    0.003038  -0.035552   0.009968   0.438420  -0.033240   0.005185
    13  H    0.003038   0.009968  -0.035552  -0.033240   0.438420  -0.001675
    14  H    0.003038  -0.035552   0.009968   0.005185  -0.001675   0.438420
    15  H    0.003038   0.009968  -0.035552  -0.001675   0.005185  -0.033240
               7          8          9         10         11         12
     1  C   -0.106060   0.422376   0.422376  -0.022500  -0.022500   0.003038
     2  C   -0.083809  -0.032036  -0.032036   0.459713   0.008185  -0.035552
     3  C    0.356619  -0.032036  -0.032036   0.008185   0.459713   0.009968
     4  C   -0.040573   0.008936   0.004117  -0.040452   0.009031   0.438420
     5  C   -0.064514   0.008936   0.004117   0.009031  -0.040452  -0.033240
     6  C    0.629522   0.004117   0.008936  -0.040452   0.009031   0.005185
     7  C    4.953246   0.004117   0.008936   0.009031  -0.040452  -0.001675
     8  H    0.004117   0.582005  -0.012053  -0.001556  -0.001556  -0.000227
     9  H    0.008936  -0.012053   0.582005  -0.001556  -0.001556  -0.000165
    10  H    0.009031  -0.001556  -0.001556   0.618104   0.000075  -0.003549
    11  H   -0.040452  -0.001556  -0.001556   0.000075   0.618104  -0.000190
    12  H   -0.001675  -0.000227  -0.000165  -0.003549  -0.000190   0.598536
    13  H    0.005185  -0.000227  -0.000165  -0.000190  -0.003549  -0.005542
    14  H   -0.033240  -0.000165  -0.000227  -0.003549  -0.000190   0.000220
    15  H    0.438420  -0.000165  -0.000227  -0.000190  -0.003549  -0.000025
              13         14         15
     1  C    0.003038   0.003038   0.003038
     2  C    0.009968  -0.035552   0.009968
     3  C   -0.035552   0.009968  -0.035552
     4  C   -0.033240   0.005185  -0.001675
     5  C    0.438420  -0.001675   0.005185
     6  C   -0.001675   0.438420  -0.033240
     7  C    0.005185  -0.033240   0.438420
     8  H   -0.000227  -0.000165  -0.000165
     9  H   -0.000165  -0.000227  -0.000227
    10  H   -0.000190  -0.003549  -0.000190
    11  H   -0.003549  -0.000190  -0.003549
    12  H   -0.005542   0.000220  -0.000025
    13  H    0.598536  -0.000025   0.000220
    14  H   -0.000025   0.598536  -0.005542
    15  H    0.000220  -0.005542   0.598536
 Mulliken charges:
               1
     1  C   -0.003540
     2  C   -0.037704
     3  C   -0.037704
     4  C   -0.034753
     5  C   -0.034753
     6  C   -0.034753
     7  C   -0.034753
     8  H    0.049534
     9  H    0.049534
    10  H    0.009854
    11  H    0.009854
    12  H    0.024797
    13  H    0.024797
    14  H    0.024797
    15  H    0.024797
 Sum of Mulliken charges =  -0.00000
 Mulliken charges with hydrogens summed into heavy atoms:
               1
     1  C    0.095527
     2  C   -0.027850
     3  C   -0.027850
     4  C   -0.009957
     5  C   -0.009957
     6  C   -0.009957
     7  C   -0.009957
 Electronic spatial extent (au):  <R**2>=            546.2388
 Charge=             -0.0000 electrons
 Dipole moment (field-independent basis, Debye):
    X=             -0.0000    Y=              0.0000    Z=              0.0827  Tot=              0.0827
 Quadrupole moment (field-independent basis, Debye-Ang):
   XX=            -43.2021   YY=            -39.3810   ZZ=            -43.4097
   XY=              0.0000   XZ=              0.0000   YZ=             -0.0000
 Traceless Quadrupole moment (field-independent basis, Debye-Ang):
   XX=             -1.2045   YY=              2.6166   ZZ=             -1.4121
   XY=              0.0000   XZ=              0.0000   YZ=             -0.0000
 Octapole moment (field-independent basis, Debye-Ang**2):
  XXX=              0.0000  YYY=             -0.0000  ZZZ=              4.0141  XYY=             -0.0000
  XXY=             -0.0000  XXZ=             -5.4952  XZZ=              0.0000  YZZ=              0.0000
  YYZ=             -1.7451  XYZ=             -0.0000
 Hexadecapole moment (field-independent basis, Debye-Ang**3):
 XXXX=           -328.7772 YYYY=           -241.1424 ZZZZ=           -212.9550 XXXY=              0.0000
 XXXZ=              0.0000 YYYX=              0.0000 YYYZ=             -0.0000 ZZZX=              0.0000
 ZZZY=             -0.0000 XXYY=            -86.8288 XXZZ=            -81.5702 YYZZ=            -74.1095
 XXYZ=             -0.0000 YYXZ=              0.0000 ZZXY=              0.0000
 N-N= 2.878271673125D+02 E-N=-1.205460964196D+03  KE= 2.704229885014D+02
 Symmetry A1   KE= 1.137151420847D+02
 Symmetry A2   KE= 3.734304063645D+01
 Symmetry B1   KE= 4.488305688709D+01
 Symmetry B2   KE= 7.448174889314D+01
 Calling FoFJK, ICntrl=      2127 FMM=F ISym2X=1 I1Cent= 0 IOpClX= 0 NMat=1 NMatS=1 NMatT=0.
 ***** Axes restored to original set *****
 -------------------------------------------------------------------
 Center     Atomic                   Forces (Hartrees/Bohr)
 Number     Number              X              Y              Z
 -------------------------------------------------------------------
      1        6          -0.000000000    0.000000000    0.000660039
      2        6           0.000000000   -0.000006119   -0.000375124
      3        6           0.000000000    0.000006119   -0.000375124
      4        6          -0.000074530   -0.000682165   -0.000036116
      5        6          -0.000074530    0.000682165   -0.000036116
      6        6           0.000074530   -0.000682165   -0.000036116
      7        6           0.000074530    0.000682165   -0.000036116
      8        1           0.000655607   -0.000000000   -0.000578633
      9        1          -0.000655607    0.000000000   -0.000578633
     10        1           0.000000000   -0.000858728   -0.000239991
     11        1           0.000000000    0.000858728   -0.000239991
     12        1          -0.000605334   -0.000632761    0.000467980
     13        1          -0.000605334    0.000632761    0.000467980
     14        1           0.000605334   -0.000632761    0.000467980
     15        1           0.000605334    0.000632761    0.000467980
 -------------------------------------------------------------------
 Cartesian Forces:  Max     0.000858728 RMS     0.000463527

 GradGradGradGradGradGradGradGradGradGradGradGradGradGradGradGradGradGrad
 Berny optimization.
 FormGI is forming the generalized inverse of G from B-inverse, IUseBI=4.
 Internal  Forces:  Max     0.001427345 RMS     0.000392893
 Search for a local minimum.
 Step number   1 out of a maximum of  100
 All quantities printed in internal units (Hartrees-Bohrs-Radians)
 Mixed Optimization -- En-DIIS/RFO-DIIS
 Second derivative matrix not updated -- first step.
 ITU=  0
     Eigenvalues ---    0.00957   0.00970   0.01064   0.01531   0.01704
     Eigenvalues ---    0.01740   0.02159   0.03562   0.04456   0.04745
     Eigenvalues ---    0.04871   0.05095   0.05899   0.06689   0.07913
     Eigenvalues ---    0.09381   0.12205   0.12492   0.15907   0.15931
     Eigenvalues ---    0.15962   0.15966   0.17904   0.22899   0.23330
     Eigenvalues ---    0.25693   0.26036   0.27768   0.28229   0.34723
     Eigenvalues ---    0.34723   0.35106   0.35106   0.35923   0.35923
     Eigenvalues ---    0.35923   0.35923   0.51011   0.54971
 RFO step:  Lambda=-4.01161882D-05 EMin= 9.57229299D-03
 Linear search not attempted -- first point.
 Iteration  1 RMS(Cart)=  0.00158080 RMS(Int)=  0.00000064
 Iteration  2 RMS(Cart)=  0.00000067 RMS(Int)=  0.00000011
 ClnCor:  largest displacement from symmetrization is 6.72D-09 for atom     5.
 Variable       Old X    -DE/DX   Delta X   Delta X   Delta X     New X
                                 (Linear)    (Quad)   (Total)
    R1        2.94574  -0.00063   0.00000  -0.00163  -0.00163   2.94411
    R2        2.94574  -0.00063   0.00000  -0.00163  -0.00163   2.94411
    R3        2.06127  -0.00087   0.00000  -0.00250  -0.00250   2.05877
    R4        2.06127  -0.00087   0.00000  -0.00250  -0.00250   2.05877
    R5        2.91447  -0.00080   0.00000  -0.00298  -0.00298   2.91150
    R6        2.91447  -0.00080   0.00000  -0.00298  -0.00298   2.91150
    R7        2.05503  -0.00089   0.00000  -0.00254  -0.00254   2.05249
    R8        2.91447  -0.00080   0.00000  -0.00298  -0.00298   2.91150
    R9        2.91447  -0.00080   0.00000  -0.00298  -0.00298   2.91150
   R10        2.05503  -0.00089   0.00000  -0.00254  -0.00254   2.05249
   R11        2.51484  -0.00143   0.00000  -0.00263  -0.00263   2.51221
   R12        2.04202  -0.00099   0.00000  -0.00276  -0.00276   2.03925
   R13        2.04202  -0.00099   0.00000  -0.00276  -0.00276   2.03925
   R14        2.51484  -0.00143   0.00000  -0.00263  -0.00263   2.51221
   R15        2.04202  -0.00099   0.00000  -0.00276  -0.00276   2.03925
   R16        2.04202  -0.00099   0.00000  -0.00276  -0.00276   2.03925
    A1        1.60615  -0.00027   0.00000  -0.00069  -0.00069   1.60546
    A2        1.97653   0.00006   0.00000  -0.00018  -0.00018   1.97635
    A3        1.97653   0.00006   0.00000  -0.00018  -0.00018   1.97635
    A4        1.97653   0.00006   0.00000  -0.00018  -0.00018   1.97635
    A5        1.97653   0.00006   0.00000  -0.00018  -0.00018   1.97635
    A6        1.93267   0.00001   0.00000   0.00107   0.00107   1.93374
    A7        1.71567   0.00001   0.00000   0.00002   0.00002   1.71569
    A8        1.71567   0.00001   0.00000   0.00002   0.00002   1.71569
    A9        2.05923  -0.00008   0.00000  -0.00041  -0.00041   2.05882
   A10        1.87135  -0.00007   0.00000   0.00016   0.00016   1.87151
   A11        2.02685   0.00005   0.00000   0.00010   0.00010   2.02695
   A12        2.02685   0.00005   0.00000   0.00010   0.00010   2.02695
   A13        1.71567   0.00001   0.00000   0.00002   0.00002   1.71569
   A14        1.71567   0.00001   0.00000   0.00002   0.00002   1.71569
   A15        2.05923  -0.00008   0.00000  -0.00041  -0.00041   2.05882
   A16        1.87135  -0.00007   0.00000   0.00016   0.00016   1.87151
   A17        2.02685   0.00005   0.00000   0.00010   0.00010   2.02695
   A18        2.02685   0.00005   0.00000   0.00010   0.00010   2.02695
   A19        1.87106   0.00008   0.00000   0.00011   0.00011   1.87117
   A20        2.17384  -0.00001   0.00000   0.00013   0.00013   2.17397
   A21        2.23667  -0.00007   0.00000  -0.00019  -0.00019   2.23647
   A22        1.87106   0.00008   0.00000   0.00011   0.00011   1.87117
   A23        2.17384  -0.00001   0.00000   0.00013   0.00013   2.17397
   A24        2.23667  -0.00007   0.00000  -0.00019  -0.00019   2.23647
   A25        1.87106   0.00008   0.00000   0.00011   0.00011   1.87117
   A26        2.17384  -0.00001   0.00000   0.00013   0.00013   2.17397
   A27        2.23667  -0.00007   0.00000  -0.00019  -0.00019   2.23647
   A28        1.87106   0.00008   0.00000   0.00011   0.00011   1.87117
   A29        2.17384  -0.00001   0.00000   0.00013   0.00013   2.17397
   A30        2.23667  -0.00007   0.00000  -0.00019  -0.00019   2.23647
    D1       -0.95018   0.00003   0.00000  -0.00009  -0.00009  -0.95027
    D2        0.95018  -0.00003   0.00000   0.00009   0.00009   0.95027
    D3        3.14159   0.00000   0.00000   0.00000   0.00000   3.14159
    D4       -2.98219   0.00009   0.00000   0.00050   0.00050  -2.98169
    D5       -1.08182   0.00002   0.00000   0.00067   0.00067  -1.08115
    D6        1.10959   0.00005   0.00000   0.00059   0.00059   1.11017
    D7        1.08182  -0.00002   0.00000  -0.00067  -0.00067   1.08115
    D8        2.98219  -0.00009   0.00000  -0.00050  -0.00050   2.98169
    D9       -1.10959  -0.00005   0.00000  -0.00059  -0.00059  -1.11017
   D10        0.95018  -0.00003   0.00000   0.00009   0.00009   0.95027
   D11       -0.95018   0.00003   0.00000  -0.00009  -0.00009  -0.95027
   D12        3.14159  -0.00000   0.00000   0.00000   0.00000   3.14159
   D13        2.98219  -0.00009   0.00000  -0.00050  -0.00050   2.98169
   D14        1.08182  -0.00002   0.00000  -0.00067  -0.00067   1.08115
   D15       -1.10959  -0.00005   0.00000  -0.00059  -0.00059  -1.11017
   D16       -1.08182   0.00002   0.00000   0.00067   0.00067  -1.08115
   D17       -2.98219   0.00009   0.00000   0.00050   0.00050  -2.98169
   D18        1.10959   0.00005   0.00000   0.00059   0.00059   1.11017
   D19        0.63286   0.00010   0.00000   0.00033   0.00033   0.63319
   D20       -2.56565   0.00005   0.00000   0.00123   0.00123  -2.56442
   D21       -1.13722   0.00010   0.00000   0.00027   0.00027  -1.13695
   D22        1.94746   0.00005   0.00000   0.00116   0.00116   1.94862
   D23        2.84686   0.00004   0.00000  -0.00011  -0.00011   2.84676
   D24       -0.35164  -0.00001   0.00000   0.00079   0.00079  -0.35085
   D25       -0.63286  -0.00010   0.00000  -0.00033  -0.00033  -0.63319
   D26        2.56565  -0.00005   0.00000  -0.00123  -0.00123   2.56442
   D27        1.13722  -0.00010   0.00000  -0.00027  -0.00027   1.13695
   D28       -1.94746  -0.00005   0.00000  -0.00116  -0.00116  -1.94862
   D29       -2.84686  -0.00004   0.00000   0.00011   0.00011  -2.84676
   D30        0.35164   0.00001   0.00000  -0.00079  -0.00079   0.35085
   D31       -0.63286  -0.00010   0.00000  -0.00033  -0.00033  -0.63319
   D32        2.56565  -0.00005   0.00000  -0.00123  -0.00123   2.56442
   D33        1.13722  -0.00010   0.00000  -0.00027  -0.00027   1.13695
   D34       -1.94746  -0.00005   0.00000  -0.00116  -0.00116  -1.94862
   D35       -2.84686  -0.00004   0.00000   0.00011   0.00011  -2.84676
   D36        0.35164   0.00001   0.00000  -0.00079  -0.00079   0.35085
   D37        0.63286   0.00010   0.00000   0.00033   0.00033   0.63319
   D38       -2.56565   0.00005   0.00000   0.00123   0.00123  -2.56442
   D39       -1.13722   0.00010   0.00000   0.00027   0.00027  -1.13695
   D40        1.94746   0.00005   0.00000   0.00116   0.00116   1.94862
   D41        2.84686   0.00004   0.00000  -0.00011  -0.00011   2.84676
   D42       -0.35164  -0.00001   0.00000   0.00079   0.00079  -0.35085
   D43        0.00000   0.00000   0.00000   0.00000   0.00000   0.00000
   D44        3.08198  -0.00005   0.00000   0.00095   0.00095   3.08293
   D45       -3.08198   0.00005   0.00000  -0.00095  -0.00095  -3.08293
   D46       -0.00000   0.00000   0.00000   0.00000   0.00000   0.00000
   D47        0.00000   0.00000   0.00000   0.00000   0.00000   0.00000
   D48       -3.08198   0.00005   0.00000  -0.00095  -0.00095  -3.08293
   D49        3.08198  -0.00005   0.00000   0.00095   0.00095   3.08293
   D50       -0.00000   0.00000   0.00000  -0.00000  -0.00000  -0.00000
         Item               Value     Threshold  Converged?
 Maximum Force            0.001427     0.000450     NO 
 RMS     Force            0.000393     0.000300     NO 
 Maximum Displacement     0.004334     0.001800     NO 
 RMS     Displacement     0.001581     0.001200     NO 
 Predicted change in Energy=-2.005845D-05
 GradGradGradGradGradGradGradGradGradGradGradGradGradGradGradGradGradGrad

                          Input orientation:                          
 ---------------------------------------------------------------------
 Center     Atomic      Atomic             Coordinates (Angstroms)
 Number     Number       Type             X           Y           Z
 ---------------------------------------------------------------------
      1          6           0       -0.000000   -0.000000    1.354382
      2          6           0        0.000000    1.120566    0.271999
      3          6           0       -0.000000   -1.120566    0.271999
      4          6           0        1.240335    0.664701   -0.520156
      5          6           0        1.240335   -0.664701   -0.520156
      6          6           0       -1.240335    0.664701   -0.520156
      7          6           0       -1.240335   -0.664701   -0.520156
      8          1           0       -0.896743    0.000000    1.973059
      9          1           0        0.896743   -0.000000    1.973059
     10          1           0        0.000000    2.153356    0.608197
     11          1           0       -0.000000   -2.153356    0.608197
     12          1           0        1.927621    1.331159   -1.018138
     13          1           0        1.927621   -1.331159   -1.018138
     14          1           0       -1.927621    1.331159   -1.018138
     15          1           0       -1.927621   -1.331159   -1.018138
 ---------------------------------------------------------------------
                    Distance matrix (angstroms):
                    1          2          3          4          5
     1  C    0.000000
     2  C    1.557954   0.000000
     3  C    1.557954   2.241131   0.000000
     4  C    2.343961   1.540699   2.313681   0.000000
     5  C    2.343961   2.313681   1.540699   1.329402   0.000000
     6  C    2.343961   1.540699   2.313681   2.480670   2.814433
     7  C    2.343961   2.313681   1.540699   2.814433   2.480670
     8  H    1.089453   2.225628   2.225628   3.350381   3.350381
     9  H    1.089453   2.225628   2.225628   2.603076   2.603076
    10  H    2.278976   1.086133   3.291138   2.242254   3.279185
    11  H    2.278976   3.291138   1.086133   3.279185   2.242254
    12  H    3.334151   2.329061   3.375075   1.079126   2.168826
    13  H    3.334151   3.375075   2.329061   2.168826   1.079126
    14  H    3.334151   2.329061   3.375075   3.275377   3.777220
    15  H    3.334151   3.375075   2.329061   3.777220   3.275377
                    6          7          8          9         10
     6  C    0.000000
     7  C    1.329402   0.000000
     8  H    2.603076   2.603076   0.000000
     9  H    3.350381   3.350381   1.793485   0.000000
    10  H    2.242254   3.279185   2.702579   2.702579   0.000000
    11  H    3.279185   2.242254   2.702579   2.702579   4.306711
    12  H    3.275377   3.777220   4.323919   3.432485   2.652677
    13  H    3.777220   3.275377   4.323919   3.432485   4.301457
    14  H    1.079126   2.168826   3.432485   4.323919   2.652677
    15  H    2.168826   1.079126   3.432485   4.323919   4.301457
                   11         12         13         14         15
    11  H    0.000000
    12  H    4.301457   0.000000
    13  H    2.652677   2.662318   0.000000
    14  H    4.301457   3.855241   4.685171   0.000000
    15  H    2.652677   4.685171   3.855241   2.662318   0.000000
 Stoichiometry    C7H8
 Framework group  C2V[C2(C),SGV(C2H2),SGV'(H2),X(C4H4)]
 Deg. of freedom    12
 Full point group                 C2V     NOp   4
 Largest Abelian subgroup         C2V     NOp   4
 Largest concise Abelian subgroup C2V     NOp   4
                         Standard orientation:                         
 ---------------------------------------------------------------------
 Center     Atomic      Atomic             Coordinates (Angstroms)
 Number     Number       Type             X           Y           Z
 ---------------------------------------------------------------------
      1          6           0        0.000000    0.000000    1.354453
      2          6           0        0.000000    1.120566    0.272069
      3          6           0       -0.000000   -1.120566    0.272069
      4          6           0        1.240335    0.664701   -0.520086
      5          6           0        1.240335   -0.664701   -0.520086
      6          6           0       -1.240335    0.664701   -0.520086
      7          6           0       -1.240335   -0.664701   -0.520086
      8          1           0       -0.896743    0.000000    1.973129
      9          1           0        0.896743   -0.000000    1.973129
     10          1           0        0.000000    2.153356    0.608267
     11          1           0       -0.000000   -2.153356    0.608267
     12          1           0        1.927621    1.331159   -1.018068
     13          1           0        1.927621   -1.331159   -1.018068
     14          1           0       -1.927621    1.331159   -1.018068
     15          1           0       -1.927621   -1.331159   -1.018068
 ---------------------------------------------------------------------
 Rotational constants (GHZ):           4.3059767           3.6104163           3.1929760
 Basis read from rwf:  (5D, 7F)
 There are   112 symmetry adapted cartesian basis functions of A1  symmetry.
 There are    72 symmetry adapted cartesian basis functions of A2  symmetry.
 There are    84 symmetry adapted cartesian basis functions of B1  symmetry.
 There are    97 symmetry adapted cartesian basis functions of B2  symmetry.
 There are    97 symmetry adapted basis functions of A1  symmetry.
 There are    65 symmetry adapted basis functions of A2  symmetry.
 There are    75 symmetry adapted basis functions of B1  symmetry.
 There are    85 symmetry adapted basis functions of B2  symmetry.
   322 basis functions,   501 primitive gaussians,   365 cartesian basis functions
    25 alpha electrons       25 beta electrons
       nuclear repulsion energy       288.1059107135 Hartrees.
 NAtoms=   15 NActive=   15 NUniq=    6 SFac= 4.00D+00 NAtFMM=   60 NAOKFM=F Big=F
 Integral buffers will be    131072 words long.
 Raffenetti 2 integral format.
 Two-electron integral symmetry is turned on.
 One-electron integrals computed using PRISM.
 NBasis=   322 RedAO= T EigKep=  4.18D-05  NBF=    97    65    75    85
 NBsUse=   322 1.00D-06 EigRej= -1.00D+00 NBFU=    97    65    75    85
 Initial guess from the checkpoint file:  "/wrk/irikura/Gau-26153.chk"
 B after Tr=     0.000000   -0.000000    0.000000
         Rot=    1.000000    0.000000    0.000000    0.000000 Ang=   0.00 deg.
 Initial guess orbital symmetries:
       Occupied  (B2) (A1) (A1) (B1) (A1) (A2) (B2) (A1) (B1) (B2)
                 (A1) (A1) (A2) (A1) (B2) (B1) (B1) (A1) (A1) (B2)
                 (B1) (B2) (A2) (A1) (B1)
       Virtual   (B2) (A1) (A2) (B2) (B1) (A1) (A1) (B1) (B2) (A2)
                 (A1) (A1) (B2) (B1) (A2) (B2) (A1) (A1) (B1) (B1)
                 (B2) (A2) (A1) (A2) (B2) (B1) (A1) (B2) (B2) (B1)
                 (A1) (A2) (A1) (B1) (B2) (A1) (B1) (B2) (A1) (A1)
                 (A2) (B1) (B2) (A2) (A1) (A2) (B2) (A2) (A1) (B2)
                 (A1) (B2) (B1) (B2) (A1) (B2) (A2) (B1) (A1) (B1)
                 (A1) (B1) (A2) (A1) (A1) (B1) (B2) (B1) (B2) (A1)
                 (A1) (A2) (B1) (B2) (B1) (A2) (A1) (A2) (B2) (A2)
                 (B1) (A1) (A1) (B2) (B2) (A1) (B1) (A1) (B2) (B1)
                 (B1) (B2) (B1) (A1) (A2) (B2) (A1) (A2) (A1) (A2)
                 (B2) (A2) (B2) (B1) (A1) (B2) (A1) (B1) (A2) (B2)
                 (B1) (A2) (A1) (A2) (A1) (B2) (B1) (A1) (B2) (B1)
                 (A1) (A2) (B2) (B1) (B2) (A1) (B1) (B2) (A1) (A2)
                 (A2) (A1) (B2) (A2) (B1) (A1) (B2) (A1) (B1) (B2)
                 (A1) (A2) (B1) (B2) (A1) (B1) (B2) (B1) (A2) (A1)
                 (A1) (A2) (B2) (B1) (B1) (A1) (A1) (B2) (B1) (A1)
                 (A2) (B2) (B1) (A1) (B1) (A1) (B2) (A2) (B1) (A2)
                 (B2) (A1) (A2) (B2) (A1) (B1) (B2) (A1) (A2) (B1)
                 (A1) (B2) (B1) (A1) (B2) (A1) (A2) (B1) (A2) (A1)
                 (B1) (B2) (B1) (A2) (A1) (B2) (A2) (B1) (A1) (A1)
                 (B1) (B2) (B2) (A2) (A1) (A2) (B1) (B2) (A1) (A2)
                 (B1) (B2) (B2) (A1) (A1) (A2) (B2) (A2) (B1) (A1)
                 (A2) (B2) (B1) (B1) (A1) (A2) (B2) (A1) (A2) (B2)
                 (A1) (A2) (B1) (B2) (A1) (B2) (B1) (B2) (A1) (A2)
                 (B1) (A2) (B1) (A1) (B2) (B1) (A2) (B2) (A1) (B2)
                 (B1) (A2) (B2) (A1) (A2) (B2) (B1) (B2) (B1) (A1)
                 (A2) (A1) (B2) (A2) (A1) (B2) (B1) (A2) (A1) (B1)
                 (B2) (A2) (A1) (B2) (A1) (B1) (A1) (A2) (B1) (B2)
                 (A1) (A1) (B2) (B1) (A2) (A1) (A2) (B1) (B2) (B2)
                 (A2) (B1) (B2) (A1) (A1) (A2) (B2)
 Requested convergence on RMS density matrix=1.00D-08 within 128 cycles.
 Requested convergence on MAX density matrix=1.00D-06.
 Requested convergence on             energy=1.00D-06.
 No special actions if energy rises.
 SCF Done:  E(RB3LYP) =  -271.580874278     A.U. after    7 cycles
            NFock=  7  Conv=0.52D-08     -V/T= 2.0041
 Calling FoFJK, ICntrl=      2127 FMM=F ISym2X=1 I1Cent= 0 IOpClX= 0 NMat=1 NMatS=1 NMatT=0.
 ***** Axes restored to original set *****
 -------------------------------------------------------------------
 Center     Atomic                   Forces (Hartrees/Bohr)
 Number     Number              X              Y              Z
 -------------------------------------------------------------------
      1        6           0.000000000    0.000000000    0.000275496
      2        6           0.000000000    0.000125918   -0.000141016
      3        6          -0.000000000   -0.000125918   -0.000141016
      4        6           0.000004459    0.000121329    0.000020851
      5        6           0.000004459   -0.000121329    0.000020851
      6        6          -0.000004459    0.000121329    0.000020851
      7        6          -0.000004459   -0.000121329    0.000020851
      8        1           0.000000849   -0.000000000   -0.000025485
      9        1          -0.000000849    0.000000000   -0.000025485
     10        1           0.000000000    0.000015377    0.000020713
     11        1           0.000000000   -0.000015377    0.000020713
     12        1           0.000017085    0.000016130   -0.000016831
     13        1           0.000017085   -0.000016130   -0.000016831
     14        1          -0.000017085    0.000016130   -0.000016831
     15        1          -0.000017085   -0.000016130   -0.000016831
 -------------------------------------------------------------------
 Cartesian Forces:  Max     0.000275496 RMS     0.000068969

 GradGradGradGradGradGradGradGradGradGradGradGradGradGradGradGradGradGrad
 Berny optimization.
 Using GEDIIS/GDIIS optimizer.
 FormGI is forming the generalized inverse of G from B-inverse, IUseBI=4.
 Internal  Forces:  Max     0.000156407 RMS     0.000033011
 Search for a local minimum.
 Step number   2 out of a maximum of  100
 All quantities printed in internal units (Hartrees-Bohrs-Radians)
 Mixed Optimization -- En-DIIS/RFO-DIIS
 Swapping is turned off.
 Update second derivatives using D2CorX and points    1    2
 DE= -1.92D-05 DEPred=-2.01D-05 R= 9.56D-01
 TightC=F SS=  1.41D+00  RLast= 1.16D-02 DXNew= 5.0454D-01 3.4915D-02
 Trust test= 9.56D-01 RLast= 1.16D-02 DXMaxT set to 3.00D-01
 ITU=  1  0
     Eigenvalues ---    0.00958   0.00969   0.01064   0.01531   0.01703
     Eigenvalues ---    0.01743   0.02158   0.03562   0.04450   0.04748
     Eigenvalues ---    0.04870   0.05088   0.05880   0.06685   0.07920
     Eigenvalues ---    0.09377   0.12194   0.12489   0.15910   0.15933
     Eigenvalues ---    0.15964   0.15965   0.17903   0.22891   0.23239
     Eigenvalues ---    0.25689   0.26033   0.27767   0.28702   0.34407
     Eigenvalues ---    0.34723   0.35106   0.35140   0.35923   0.35923
     Eigenvalues ---    0.35923   0.36081   0.50998   0.57265
 En-DIIS/RFO-DIIS/Sim-DIIS IScMMF=       -3 using points:     2    1
 RFO step:  Lambda=-2.97120718D-07.
 DidBck=F Rises=F RFO-DIIS coefs:    0.96848    0.03152
 Iteration  1 RMS(Cart)=  0.00009474 RMS(Int)=  0.00000001
 Iteration  2 RMS(Cart)=  0.00000001 RMS(Int)=  0.00000001
 ClnCor:  largest displacement from symmetrization is 4.00D-09 for atom     6.
 Variable       Old X    -DE/DX   Delta X   Delta X   Delta X     New X
                                 (Linear)    (Quad)   (Total)
    R1        2.94411   0.00015   0.00005   0.00049   0.00055   2.94465
    R2        2.94411   0.00015   0.00005   0.00049   0.00055   2.94465
    R3        2.05877  -0.00002   0.00008  -0.00013  -0.00006   2.05871
    R4        2.05877  -0.00002   0.00008  -0.00013  -0.00006   2.05871
    R5        2.91150   0.00002   0.00009  -0.00004   0.00005   2.91155
    R6        2.91150   0.00002   0.00009  -0.00004   0.00005   2.91155
    R7        2.05249   0.00002   0.00008  -0.00004   0.00004   2.05254
    R8        2.91150   0.00002   0.00009  -0.00004   0.00005   2.91155
    R9        2.91150   0.00002   0.00009  -0.00004   0.00005   2.91155
   R10        2.05249   0.00002   0.00008  -0.00004   0.00004   2.05254
   R11        2.51221   0.00016   0.00008   0.00015   0.00023   2.51244
   R12        2.03925   0.00003   0.00009  -0.00003   0.00006   2.03931
   R13        2.03925   0.00003   0.00009  -0.00003   0.00006   2.03931
   R14        2.51221   0.00016   0.00008   0.00015   0.00023   2.51244
   R15        2.03925   0.00003   0.00009  -0.00003   0.00006   2.03931
   R16        2.03925   0.00003   0.00009  -0.00003   0.00006   2.03931
    A1        1.60546  -0.00001   0.00002  -0.00012  -0.00009   1.60536
    A2        1.97635  -0.00000   0.00001  -0.00005  -0.00004   1.97631
    A3        1.97635  -0.00000   0.00001  -0.00005  -0.00004   1.97631
    A4        1.97635  -0.00000   0.00001  -0.00005  -0.00004   1.97631
    A5        1.97635  -0.00000   0.00001  -0.00005  -0.00004   1.97631
    A6        1.93374   0.00001  -0.00003   0.00023   0.00020   1.93394
    A7        1.71569  -0.00001  -0.00000  -0.00007  -0.00007   1.71562
    A8        1.71569  -0.00001  -0.00000  -0.00007  -0.00007   1.71562
    A9        2.05882  -0.00000   0.00001  -0.00013  -0.00012   2.05870
   A10        1.87151   0.00001  -0.00000   0.00012   0.00012   1.87163
   A11        2.02695   0.00000  -0.00000   0.00006   0.00006   2.02701
   A12        2.02695   0.00000  -0.00000   0.00006   0.00006   2.02701
   A13        1.71569  -0.00001  -0.00000  -0.00007  -0.00007   1.71562
   A14        1.71569  -0.00001  -0.00000  -0.00007  -0.00007   1.71562
   A15        2.05882  -0.00000   0.00001  -0.00013  -0.00012   2.05870
   A16        1.87151   0.00001  -0.00000   0.00012   0.00012   1.87163
   A17        2.02695   0.00000  -0.00000   0.00006   0.00006   2.02701
   A18        2.02695   0.00000  -0.00000   0.00006   0.00006   2.02701
   A19        1.87117   0.00001  -0.00000   0.00006   0.00006   1.87123
   A20        2.17397  -0.00000  -0.00000  -0.00002  -0.00002   2.17395
   A21        2.23647  -0.00001   0.00001  -0.00005  -0.00005   2.23643
   A22        1.87117   0.00001  -0.00000   0.00006   0.00006   1.87123
   A23        2.17397  -0.00000  -0.00000  -0.00002  -0.00002   2.17395
   A24        2.23647  -0.00001   0.00001  -0.00005  -0.00005   2.23643
   A25        1.87117   0.00001  -0.00000   0.00006   0.00006   1.87123
   A26        2.17397  -0.00000  -0.00000  -0.00002  -0.00002   2.17395
   A27        2.23647  -0.00001   0.00001  -0.00005  -0.00005   2.23643
   A28        1.87117   0.00001  -0.00000   0.00006   0.00006   1.87123
   A29        2.17397  -0.00000  -0.00000  -0.00002  -0.00002   2.17395
   A30        2.23647  -0.00001   0.00001  -0.00005  -0.00005   2.23643
    D1       -0.95027  -0.00000   0.00000  -0.00005  -0.00005  -0.95032
    D2        0.95027   0.00000  -0.00000   0.00005   0.00005   0.95032
    D3        3.14159   0.00000   0.00000  -0.00000   0.00000   3.14159
    D4       -2.98169   0.00000  -0.00002   0.00007   0.00006  -2.98163
    D5       -1.08115   0.00001  -0.00002   0.00017   0.00015  -1.08100
    D6        1.11017   0.00001  -0.00002   0.00012   0.00010   1.11028
    D7        1.08115  -0.00001   0.00002  -0.00017  -0.00015   1.08100
    D8        2.98169  -0.00000   0.00002  -0.00007  -0.00006   2.98163
[...]
 ! D33   D(7,3,5,4)             65.1425         -DE/DX =    0.0                 !
 ! D34   D(7,3,5,13)          -111.648          -DE/DX =    0.0                 !
 ! D35   D(11,3,5,4)          -163.1071         -DE/DX =    0.0                 !
 ! D36   D(11,3,5,13)           20.1024         -DE/DX =    0.0                 !
 ! D37   D(1,3,7,6)             36.2793         -DE/DX =    0.0                 !
 ! D38   D(1,3,7,15)          -146.9303         -DE/DX =    0.0                 !
 ! D39   D(5,3,7,6)            -65.1425         -DE/DX =    0.0                 !
 ! D40   D(5,3,7,15)           111.648          -DE/DX =    0.0                 !
 ! D41   D(11,3,7,6)           163.1071         -DE/DX =    0.0                 !
 ! D42   D(11,3,7,15)          -20.1024         -DE/DX =    0.0                 !
 ! D43   D(2,4,5,3)              0.0            -DE/DX =    0.0                 !
 ! D44   D(2,4,5,13)           176.6391         -DE/DX =    0.0                 !
 ! D45   D(12,4,5,3)          -176.6391         -DE/DX =    0.0                 !
 ! D46   D(12,4,5,13)            0.0            -DE/DX =    0.0                 !
 ! D47   D(2,6,7,3)              0.0            -DE/DX =    0.0                 !
 ! D48   D(2,6,7,15)          -176.6391         -DE/DX =    0.0                 !
 ! D49   D(14,6,7,3)           176.6391         -DE/DX =    0.0                 !
 ! D50   D(14,6,7,15)            0.0            -DE/DX =    0.0                 !
 --------------------------------------------------------------------------------
 GradGradGradGradGradGradGradGradGradGradGradGradGradGradGradGradGradGrad


 ----------------------------------------------------------------------

 Electric dipole moment (input orientation):
 (Debye = 10**-18 statcoulomb cm , SI units = C m)
                  (au)            (Debye)         (10**-30 SI)
   Tot        0.335905D-01      0.853786D-01      0.284792D+00
   x          0.000000D+00      0.000000D+00      0.000000D+00
   y          0.000000D+00      0.000000D+00      0.000000D+00
   z          0.335905D-01      0.853786D-01      0.284792D+00

 Dipole polarizability, Alpha (input orientation).
 (esu units = cm**3 , SI units = C**2 m**2 J**-1)
 Alpha(0;0):
               (au)            (10**-24 esu)      (10**-40 SI)
   iso        0.721496D+02      0.106915D+02      0.118959D+02
   aniso      0.135475D+02      0.200753D+01      0.223368D+01
   xx         0.730564D+02      0.108258D+02      0.120454D+02
   yx         0.000000D+00      0.000000D+00      0.000000D+00
   yy         0.794784D+02      0.117775D+02      0.131042D+02
   zx         0.000000D+00      0.000000D+00      0.000000D+00
   zy         0.000000D+00      0.000000D+00      0.000000D+00
   zz         0.639142D+02      0.947110D+01      0.105380D+02

 ----------------------------------------------------------------------

 Dipole orientation:
     6         -0.00000000         -0.00000000          2.55941166
     6         -0.00000000          2.11756220          0.51400391
     6         -0.00000000         -2.11756220          0.51400391
     6          2.34389369          1.25610309         -0.98295318
     6          2.34389369         -1.25610309         -0.98295318
     6         -2.34389369          1.25610309         -0.98295318
     6         -2.34389369         -1.25610309         -0.98295318
     1         -1.69459789         -0.00000000          3.72854107
     1          1.69459789         -0.00000000          3.72854107
     1         -0.00000000          4.06925243          1.14932586
     1         -0.00000000         -4.06925243          1.14932586
     1          3.64267519          2.51552632         -1.92400244
     1          3.64267519         -2.51552632         -1.92400244
     1         -3.64267519          2.51552632         -1.92400244
     1         -3.64267519         -2.51552632         -1.92400244

 Electric dipole moment (dipole orientation):
 (Debye = 10**-18 statcoulomb cm , SI units = C m)
                  (au)            (Debye)         (10**-30 SI)
   Tot        0.335905D-01      0.853786D-01      0.284792D+00
   x          0.000000D+00      0.000000D+00      0.000000D+00
   y          0.000000D+00      0.000000D+00      0.000000D+00
   z          0.335905D-01      0.853786D-01      0.284792D+00

 Dipole polarizability, Alpha (dipole orientation).
 (esu units = cm**3 , SI units = C**2 m**2 J**-1)
 Alpha(0;0):
               (au)            (10**-24 esu)      (10**-40 SI)
   iso        0.721496D+02      0.106915D+02      0.118959D+02
   aniso      0.135475D+02      0.200753D+01      0.223368D+01
   xx         0.730564D+02      0.108258D+02      0.120454D+02
   yx         0.000000D+00      0.000000D+00      0.000000D+00
   yy         0.794784D+02      0.117775D+02      0.131042D+02
   zx         0.000000D+00      0.000000D+00      0.000000D+00
   zy         0.000000D+00      0.000000D+00      0.000000D+00
   zz         0.639142D+02      0.947110D+01      0.105380D+02

 ----------------------------------------------------------------------
 1\1\GINC-GAMBA\Freq\RB3LYP\Gen\C7H8\IRIKURA\17-Jun-2022\0\\#N Geom=All
 Check Guess=TCheck SCRF=Check GenChk RB3LYP/ChkBas Freq\\Bicyclo[2.2.1
 ]hepta-2,5-diene, B3LYP/pcseg-2\\0,1\C,0.,0.,1.3543823262\C,0.,1.12056
 56603,0.2719991532\C,0.,-1.1205656603,0.2719991532\C,1.2403351271,0.66
 47011301,-0.5201564232\C,1.2403351271,-0.6647011301,-0.5201564232\C,-1
 .2403351271,0.6647011301,-0.5201564232\C,-1.2403351271,-0.6647011301,-
 0.5201564232\H,-0.8967425861,0.,1.9730589669\H,0.8967425861,0.,1.97305
 89669\H,0.,2.1533556533,0.6081970545\H,0.,-2.1533556533,0.6081970545\H
 ,1.9276206979,1.3311592003,-1.0181382453\H,1.9276206979,-1.3311592003,
 -1.0181382453\H,-1.9276206979,1.3311592003,-1.0181382453\H,-1.92762069
 79,-1.3311592003,-1.0181382453\\Version=ES64L-G16RevB.01\State=1-A1\HF
 =-271.5808743\RMSD=3.971e-09\RMSF=6.897e-05\ZeroPoint=0.1283098\Therma
 l=0.1331765\Dipole=0.,0.,0.0335905\DipoleDeriv=0.2425194,0.,0.,0.,-0.1
 645998,0.,0.,0.,0.2016345,-0.0411099,0.,0.,0.,0.2173853,0.0996865,0.,0
 .0873086,-0.0014339,-0.0411099,0.,0.,0.,0.2173853,-0.0996866,0.,-0.087
 3087,-0.0014339,-0.0171747,-0.0428919,-0.1680687,-0.1740123,-0.0561744
 ,0.0180101,-0.1569411,-0.1050441,-0.1301505,-0.0171747,0.0428919,-0.16
 80687,0.1740123,-0.0561745,-0.0180101,-0.1569411,0.1050441,-0.1301505,
 -0.0171747,0.0428919,0.1680687,0.1740123,-0.0561744,0.0180101,0.156941
 1,-0.1050442,-0.1301505,-0.0171747,-0.0428919,0.1680687,-0.1740123,-0.
 0561745,-0.0180101,0.1569411,0.1050442,-0.1301505,-0.0924209,0.,0.1489
 069,0.,0.0692178,0.,0.0830402,0.,-0.0518464,-0.0924209,0.,-0.1489069,0
 .,0.0692178,0.,-0.0830402,0.,-0.0518464,0.0317849,0.,0.,0.,-0.154805,-
 0.0526873,0.,-0.067126,0.0352022,0.0317849,0.,0.,0.,-0.154805,0.052687
 3,0.,0.0671261,0.0352021,0.0074178,-0.0615757,0.0977284,-0.0407077,0.0
 314254,0.0391759,0.1161017,0.0608236,0.0887809,0.0074178,0.0615756,0.0
 977284,0.0407077,0.0314254,-0.0391759,0.1161017,-0.0608236,0.0887809,0
 .0074177,0.0615757,-0.0977284,0.0407077,0.0314254,0.0391759,-0.1161017
 ,0.0608236,0.0887809,0.0074178,-0.0615756,-0.0977284,-0.0407077,0.0314
 254,-0.0391759,-0.1161017,-0.0608236,0.0887809\Polar=73.0564017,0.,79.
 4783943,0.,0.,63.9141526\Quadrupole=-0.8889353,1.9380102,-1.0490749,0.
 ,0.,0.\PG=C02V [C2(C1),SGV(C2H2),SGV'(H2),X(C4H4)]\NImag=0\\0.64454250
 ,0.,0.32199301,0.,0.,0.55514848,-0.05669395,0.,0.,0.34856349,0.,-0.099
 17468,0.03030315,0.,0.67253808,0.,0.03595134,-0.09848775,0.,0.09807963
 ,0.35744135,-0.05669395,0.,0.,-0.01860847,0.,0.,0.34856349,0.,-0.09917
 468,-0.03030315,0.,-0.06066981,-0.00374634,0.,0.67253808,0.,-0.0359513
 4,-0.09848775,0.,0.00374634,-0.00636122,0.,-0.09807963,0.35744135,-0.0
 1362246,-0.01244289,0.01508154,-0.10516470,0.01419416,0.03867123,-0.00
 422196,-0.02808731,0.00762661,0.41698191,-0.01080122,-0.00132865,0.006
 59739,0.00372745,-0.08994887,-0.01481858,-0.03498919,-0.02243827,0.018
 09766,0.12230054,0.81071072,0.03155129,0.00803622,-0.02913667,0.027877
 46,-0.01245728,-0.08280070,0.00171342,0.01810519,0.00133468,-0.1858295
 8,-0.09286097,0.27395655,-0.01362246,0.01244289,0.01508154,-0.00422196
 ,0.02808731,0.00762661,-0.10516469,-0.01419416,0.03867123,-0.08287971,
 0.00116939,0.02128836,0.41698191,0.01080122,-0.00132865,-0.00659739,0.
 03498919,-0.02243827,-0.01809766,-0.00372745,-0.08994887,0.01481858,-0
 .00116939,-0.51472808,0.00450512,-0.12230054,0.81071072,0.03155129,-0.
 00803622,-0.02913667,0.00171342,-0.01810519,0.00133468,0.02787746,0.01
 245728,-0.08280070,0.02128836,-0.00450512,-0.07675266,-0.18582958,0.09
 286097,0.27395655,-0.01362246,0.01244289,-0.01508154,-0.10516469,-0.01
 419416,-0.03867123,-0.00422196,0.02808731,-0.00762661,-0.04207236,0.01
 117954,-0.00455229,-0.00836713,-0.00461655,-0.00025691,0.41698191,0.01
 080122,-0.00132865,0.00659739,-0.00372745,-0.08994887,-0.01481858,0.03
 498919,-0.02243827,0.01809766,-0.01117954,0.01225395,0.00734163,-0.004
 61655,-0.01448421,0.00331966,-0.12230054,0.81071072,-0.03155129,0.0080
 3622,-0.02913667,-0.02787746,-0.01245728,-0.08280070,-0.00171342,0.018
 10519,0.00133468,0.00455229,0.00734163,0.01386015,0.00025691,-0.003319
 66,0.00261064,0.18582958,-0.09286097,0.27395655,-0.01362246,-0.0124428
 9,-0.01508154,-0.00422196,-0.02808731,-0.00762661,-0.10516470,0.014194
 16,-0.03867123,-0.00836713,0.00461655,-0.00025691,-0.04207236,-0.01117
 954,-0.00455229,-0.08287971,-0.00116939,-0.02128836,0.41698191,-0.0108
 0122,-0.00132865,-0.00659739,-0.03498919,-0.02243827,-0.01809766,0.003
 72745,-0.08994887,0.01481858,0.00461655,-0.01448421,-0.00331966,0.0111
 7954,0.01225395,-0.00734163,0.00116939,-0.51472808,0.00450512,0.122300
 54,0.81071072,-0.03155129,-0.00803622,-0.02913667,-0.00171342,-0.01810
 519,0.00133468,-0.02787746,0.01245728,-0.08280070,0.00025691,0.0033196
 6,0.00261064,0.00455229,-0.00734163,0.01386015,-0.02128836,-0.00450512
 ,-0.07675266,0.18582958,0.09286097,0.27395655,-0.23171665,0.,0.1214847
 3,-0.00123321,0.00039465,-0.00209198,-0.00123321,-0.00039465,-0.002091
 98,0.00023085,0.00069556,0.00153034,0.00023085,-0.00069556,0.00153034,
 0.00113696,-0.00074530,-0.00227150,0.00113696,0.00074530,-0.00227150,0
 .24829768,0.,-0.04654242,0.,-0.01732178,0.00131661,0.01424215,0.017321
 78,0.00131661,-0.01424215,0.00099651,-0.00161798,0.00286346,-0.0009965
 1,-0.00161798,-0.00286346,-0.00153868,-0.00118787,0.00036209,0.0015386
 8,-0.00118787,-0.00036209,0.,0.04735371,0.11490922,0.,-0.13138527,0.01
 192748,-0.00259062,-0.00864504,0.01192748,0.00259062,-0.00864504,0.002
 47359,0.00128209,-0.00226348,0.00247359,-0.00128209,-0.00226348,0.0008
 5434,0.00148409,0.00051019,0.00085434,-0.00148409,0.00051019,-0.131018
 04,0.,0.14176404,-0.23171665,0.,-0.12148473,-0.00123321,-0.00039465,0.
 00209198,-0.00123321,0.00039465,0.00209198,0.00113696,0.00074530,0.002
 27150,0.00113696,-0.00074530,0.00227150,0.00023085,-0.00069556,-0.0015
 3034,0.00023085,0.00069556,-0.00153034,-0.01747922,0.,-0.01383164,0.24
 829768,0.,-0.04654242,0.,0.01732178,0.00131661,0.01424215,-0.01732178,
 0.00131661,-0.01424215,0.00153868,-0.00118787,0.00036209,-0.00153868,-
 0.00118787,-0.00036209,-0.00099651,-0.00161798,0.00286346,0.00099651,-
 0.00161798,-0.00286346,0.,0.00032785,0.,0.,0.04735371,-0.11490922,0.,-
 0.13138527,-0.01192748,-0.00259062,-0.00864504,-0.01192748,0.00259062,
 -0.00864504,-0.00085434,0.00148409,0.00051019,-0.00085434,-0.00148409,
 0.00051019,-0.00247359,0.00128209,-0.00226348,-0.00247359,-0.00128209,
 -0.00226348,0.01383164,0.,0.01147196,0.13101804,0.,0.14176404,-0.00195
 926,0.,0.,-0.04794564,0.,0.,-0.00036733,0.,0.,0.00274856,0.02418819,0.
 00473865,-0.00390785,0.00173617,0.00325416,0.00274856,-0.02418819,-0.0
 0473865,-0.00390785,-0.00173617,-0.00325416,0.00009434,-0.00012360,-0.
 00022716,0.00009434,0.00012360,0.00022716,0.05094148,0.,-0.01159307,-0
 .00831253,0.,-0.29371404,-0.08081846,0.,-0.00365547,0.00259310,-0.0006
 9764,-0.00246932,0.00057011,0.00003893,-0.00039436,-0.00056752,0.00069
 764,-0.00246932,0.00057011,-0.00003893,-0.00039436,-0.00056752,-0.0004
 1987,0.00030420,0.00017172,0.00041987,0.00030420,0.00017172,0.,0.31478
 603,0.,0.01929641,0.01216727,0.,-0.07986278,-0.07671213,0.,0.00476310,
 -0.00377318,-0.00293767,-0.01461773,-0.00406461,0.00350648,-0.00083372
 ,-0.00169113,0.00293767,-0.01461773,-0.00406461,-0.00350648,-0.0008337
 2,-0.00169113,0.00024648,-0.00091564,0.00054424,-0.00024648,-0.0009156
 4,0.00054424,0.,0.08783775,0.07525635,-0.00195926,0.,0.,-0.00036733,0.
 ,0.,-0.04794564,0.,0.,-0.00390785,-0.00173617,0.00325416,0.00274856,-0
 .02418819,0.00473865,-0.00390785,0.00173617,-0.00325416,0.00274856,0.0
 2418819,-0.00473865,0.00009434,0.00012360,-0.00022716,0.00009434,-0.00
 012360,0.00022716,0.00056628,0.,0.,0.05094148,0.,-0.01159307,0.0083125
 3,0.,-0.00365547,-0.00259310,0.,-0.29371404,0.08081846,-0.00003893,-0.
 00039436,0.00056752,0.00069764,-0.00246932,-0.00057011,0.00003893,-0.0
 0039436,0.00056752,-0.00069764,-0.00246932,-0.00057011,0.00041987,0.00
 030420,-0.00017172,-0.00041987,0.00030420,-0.00017172,0.,-0.00071067,0
 .00101577,0.,0.31478603,0.,-0.01929641,0.01216727,0.,-0.00476310,-0.00
 377318,0.,0.07986278,-0.07671213,0.00350648,0.00083372,-0.00169113,-0.
 00293767,0.01461773,-0.00406461,-0.00350648,0.00083372,-0.00169113,0.0
 0293767,0.01461773,-0.00406461,0.00024648,0.00091564,0.00054424,-0.000
 24648,0.00091564,0.00054424,0.,-0.00101577,0.00151048,0.,-0.08783775,0
 .07525635,-0.00232823,0.00117696,0.00086645,-0.00505442,-0.01303407,0.
 00569354,0.00320023,0.00024250,0.00414479,-0.16681295,-0.11604690,0.09
 534489,0.00571846,0.00418743,0.00089382,0.00014149,0.00050055,0.000418
 31,0.00009089,-0.00036107,-0.00059321,0.00020069,-0.00069014,0.0000894
 7,0.00001947,-0.00012781,0.00014749,0.00061423,0.00061802,-0.00036888,
 -0.00016705,0.00006570,0.00011132,0.16629464,0.00192555,-0.00051451,-0
 .00161105,0.00790453,0.00905242,-0.00492130,0.00119924,-0.00564393,-0.
 00015885,-0.11241083,-0.16516979,0.08270753,-0.02136742,-0.00899578,0.
 01498927,-0.00029096,-0.00050945,-0.00099751,0.00072170,0.00030797,0.0
 0043418,-0.00000431,0.00052796,-0.00045148,-0.00006118,0.00008751,-0.0
 0000348,-0.00101667,0.00014052,0.00060292,-0.00142504,-0.00013744,0.00
 076095,0.12429304,0.16971256,0.00171232,0.00079342,-0.00079758,0.00566
 643,0.00751561,-0.00083876,0.00572146,-0.00188586,0.00489628,0.0961817
 0,0.08682641,-0.10025988,-0.00059879,-0.00328620,0.00742180,-0.0006720
 1,-0.00111578,-0.00211441,0.00009036,0.00115068,-0.00061048,0.00019631
 ,0.00057387,-0.00099536,-0.00024118,0.00000430,-0.00007592,-0.00056481
 ,-0.00030207,0.00023335,-0.00048070,0.00001428,0.00075375,-0.10405900,
 -0.09089297,0.09559145,-0.00232823,-0.00117696,0.00086645,0.00320023,-
 0.00024250,0.00414479,-0.00505442,0.01303407,0.00569354,0.00571846,-0.
 00418743,0.00089382,-0.16681295,0.11604690,0.09534489,0.00009089,0.000
 36107,-0.00059321,0.00014149,-0.00050055,0.00041831,0.00020069,0.00069
 014,0.00008947,0.00001947,0.00012781,0.00014749,-0.00016705,-0.0000657
 0,0.00011132,0.00061423,-0.00061802,-0.00036888,-0.00168725,0.00056693
 ,-0.00282053,0.16629464,-0.00192555,-0.00051452,0.00161105,-0.00119924
 ,-0.00564393,0.00015885,-0.00790453,0.00905242,0.00492130,0.02136742,-
 0.00899578,-0.01498927,0.11241083,-0.16516979,-0.08270753,-0.00072170,
 0.00030797,-0.00043418,0.00029096,-0.00050945,0.00099751,0.00000431,0.
 00052796,0.00045148,0.00006118,0.00008751,0.00000348,0.00142504,-0.000
 13744,-0.00076095,0.00101667,0.00014052,-0.00060292,-0.00056693,0.0008
 9747,0.00057054,-0.12429304,0.16971256,0.00171232,-0.00079342,-0.00079
 758,0.00572146,0.00188586,0.00489628,0.00566643,-0.00751561,-0.0008387
 6,-0.00059879,0.00328620,0.00742180,0.09618170,-0.08682641,-0.10025988
 ,0.00009036,-0.00115068,-0.00061048,-0.00067201,0.00111578,-0.00211441
 ,0.00019631,-0.00057387,-0.00099536,-0.00024118,-0.00000430,-0.0000759
 2,-0.00048070,-0.00001428,0.00075375,-0.00056482,0.00030207,0.00023335
 ,-0.00282053,-0.00057054,-0.00396485,-0.10405900,0.09089297,0.09559145
 ,-0.00232823,-0.00117696,-0.00086645,-0.00505442,0.01303407,-0.0056935
 4,0.00320023,-0.00024250,-0.00414479,0.00014149,-0.00050055,-0.0004183
 1,0.00009089,0.00036107,0.00059321,-0.16681295,0.11604690,-0.09534489,
 0.00571846,-0.00418743,-0.00089382,0.00001947,0.00012781,-0.00014749,0
 .00020069,0.00069014,-0.00008947,0.00061423,-0.00061802,0.00036888,-0.
 00016705,-0.00006570,-0.00011132,-0.00042840,0.00011135,-0.00004116,0.
 00019821,0.00014593,-0.00009038,0.16629464,-0.00192555,-0.00051452,-0.
 00161105,-0.00790453,0.00905242,-0.00492130,-0.00119924,-0.00564393,-0
 .00015885,0.00029096,-0.00050945,-0.00099751,-0.00072170,0.00030797,0.
 00043418,0.11241083,-0.16516979,0.08270753,0.02136742,-0.00899578,0.01
 498927,0.00006118,0.00008751,-0.00000348,0.00000431,0.00052796,-0.0004
 5148,0.00101667,0.00014052,0.00060292,0.00142504,-0.00013744,0.0007609
 5,-0.00011135,0.00015735,0.00007304,0.00014593,0.00008715,0.00003928,-
 0.12429304,0.16971256,-0.00171232,0.00079342,-0.00079758,-0.00566643,0
 .00751561,-0.00083876,-0.00572146,-0.00188586,0.00489628,0.00067201,-0
 .00111578,-0.00211441,-0.00009036,0.00115068,-0.00061048,-0.09618170,0
 .08682641,-0.10025988,0.00059879,-0.00328620,0.00742180,0.00024118,0.0
 0000430,-0.00007592,-0.00019631,0.00057387,-0.00099536,0.00056482,-0.0
 0030207,0.00023335,0.00048070,0.00001428,0.00075375,0.00004116,0.00007
 304,0.00023649,0.00009038,-0.00003928,0.00052409,0.10405900,-0.0908929
 7,0.09559145,-0.00232823,0.00117696,-0.00086645,0.00320023,0.00024250,
 -0.00414479,-0.00505442,-0.01303407,-0.00569354,0.00009089,-0.00036107
 ,0.00059321,0.00014149,0.00050055,-0.00041831,0.00571846,0.00418743,-0
 .00089382,-0.16681295,-0.11604690,-0.09534489,0.00001947,-0.00012781,-
 0.00014749,0.00020069,-0.00069014,-0.00008947,-0.00016705,0.00006570,-
 0.00011132,0.00061423,0.00061802,0.00036888,0.00019821,-0.00014593,-0.
 00009038,-0.00042840,-0.00011135,-0.00004116,-0.00168725,-0.00056693,0
 .00282053,0.16629464,0.00192555,-0.00051451,0.00161105,0.00119924,-0.0
 0564393,0.00015885,0.00790453,0.00905242,0.00492130,0.00072170,0.00030
 797,-0.00043418,-0.00029096,-0.00050945,0.00099751,-0.02136742,-0.0089
 9578,-0.01498927,-0.11241083,-0.16516979,-0.08270753,-0.00006118,0.000
 08751,0.00000348,-0.00000431,0.00052796,0.00045148,-0.00142504,-0.0001
 3744,-0.00076095,-0.00101667,0.00014052,-0.00060292,-0.00014593,0.0000
 8715,-0.00003928,0.00011135,0.00015735,-0.00007304,0.00056693,0.000897
 47,0.00057054,0.12429304,0.16971256,-0.00171232,-0.00079342,-0.0007975
 8,-0.00572146,0.00188586,0.00489628,-0.00566643,-0.00751561,-0.0008387
 6,-0.00009036,-0.00115068,-0.00061048,0.00067201,0.00111578,-0.0021144
 1,0.00059879,0.00328620,0.00742180,-0.09618170,-0.08682641,-0.10025988
 ,0.00024118,-0.00000430,-0.00007592,-0.00019631,-0.00057387,-0.0009953
 6,0.00048070,-0.00001428,0.00075375,0.00056481,0.00030207,0.00023335,0
 .00009038,0.00003928,0.00052409,0.00004116,-0.00007304,0.00023649,0.00
 282053,-0.00057054,-0.00396485,0.10405900,0.09089297,0.09559145\\0.,0.
 ,-0.00027566,0.,-0.00012578,0.00014089,0.,0.00012578,0.00014089,-0.000
 00446,-0.00012134,-0.00002080,-0.00000446,0.00012134,-0.00002080,0.000
 00446,-0.00012134,-0.00002080,0.00000446,0.00012134,-0.00002080,-0.000
 00099,0.,0.00002560,0.00000099,0.,0.00002560,0.,-0.00001542,-0.0000207
 3,0.,0.00001542,-0.00002073,-0.00001713,-0.00001615,0.00001684,-0.0000
 1713,0.00001615,0.00001684,0.00001713,-0.00001615,0.00001684,0.0000171
 3,0.00001615,0.00001684\\\@


 THERE IS NO SUBJECT, HOWEVER COMPLEX,
 WHICH, IF STUDIED WITH PATIENCE AND INTELLIGIENCE
 WILL NOT BECOME
 MORE COMPLEX
                        QUOTED BY D. GORDON ROHMAN
 Job cpu time:       0 days  0 hours 48 minutes 57.7 seconds.
 Elapsed time:       0 days  0 hours  4 minutes  4.9 seconds.
 File lengths (MBytes):  RWF=     77 Int=      0 D2E=      0 Chk=     10 Scr=      1
 Normal termination of Gaussian 16 at Fri Jun 17 20:32:18 2022.
