 Entering Gaussian System, Link 0=g16
 AtFile(1): pcseg2.gbs
            -H     0
            S   4   1.00
                  0.754732D+02           0.427821D-02
                  0.113575D+02           0.328672D-01
                  0.260081D+01           0.159578D+00
                  0.735503D+00           0.500000D+00
            S   1   1.00
                  0.231761D+00           1.0000000
            S   1   1.00
                  0.741675D-01           1.0000000
            P   1   1.00
                  0.160000D+01           1.0000000
            P   1   1.00
                  0.450000D+00           1.0000000
            D   1   1.00
                  0.125000D+01           1.0000000
            ****
            -C     0
            S   7   1.00
                  0.731999D+04           0.695369D-03
                  0.109818D+04           0.537138D-02
                  0.250014D+03           0.274734D-01
                  0.707586D+02           0.105078D+00
                  0.228595D+02           0.291262D+00
                  0.803936D+01           0.500000D+00
                  0.289309D+01           0.362224D+00
            S   2   1.00
                  0.521640D+01          -0.957844D-01
                  0.556124D+00           0.500000D+00
            S   1   1.00
                  0.228813D+00           1.0000000
            S   1   1.00
                  0.936338D-01           1.0000000
            P   4   1.00
                  0.339855D+02           0.818395D-02
                  0.772957D+01           0.586921D-01
                  0.224954D+01           0.222514D+00
                  0.767681D+00           0.500000D+00
            P   1   1.00
                  0.263283D+00           1.0000000
            P   1   1.00
                  0.848744D-01           1.0000000
            D   1   1.00
                  0.140000D+01           1.0000000
            D   1   1.00
                  0.450000D+00           1.0000000
            F   1   1.00
                  0.950000D+00           1.0000000
            ****
            -O     0
            S   7   1.00
                  0.135887D+05           0.665492D-03
                  0.203847D+04           0.514222D-02
                  0.464041D+03           0.263472D-01
                  0.131339D+03           0.101500D+00
                  0.425340D+02           0.285877D+00
                  0.150429D+02           0.500000D+00
                  0.546616D+01           0.368211D+00
            S   2   1.00
                  0.100915D+02          -0.100084D+00
                  0.110429D+01           0.500000D+00
            S   1   1.00
                  0.448082D+00           1.0000000
            S   1   1.00
                  0.175325D+00           1.0000000
            P   4   1.00
                  0.608220D+02           0.908253D-02
                  0.140332D+02           0.645878D-01
                  0.418244D+01           0.241502D+00
                  0.142490D+01           0.500000D+00
            P   1   1.00
                  0.478741D+00           1.0000000
            P   1   1.00
                  0.146257D+00           1.0000000
            D   1   1.00
                  0.220000D+01           1.0000000
            D   1   1.00
                  0.650000D+00           1.0000000
            F   1   1.00
                  0.110000D+01           1.0000000
            ****
            -N     0
            S   7   1.00
                  0.101643D+05           0.682757D-03
                  0.152481D+04           0.527488D-02
                  0.347119D+03           0.270037D-01
                  0.982389D+02           0.103673D+00
                  0.317799D+02           0.289575D+00
                  0.112240D+02           0.500000D+00
                  0.406611D+01           0.364621D+00
            S   2   1.00
                  0.747898D+01          -0.975681D-01
                  0.805040D+00           0.500000D+00
            S   1   1.00
                  0.324626D+00           1.0000000
            S   1   1.00
                  0.128132D+00           1.0000000
            P   4   1.00
                  0.482704D+02           0.829547D-02
                  0.110815D+02           0.596223D-01
                  0.326643D+01           0.227889D+00
                  0.111680D+01           0.500000D+00
            P   1   1.00
                  0.382049D+00           1.0000000
            P   1   1.00
                  0.121222D+00           1.0000000
            D   1   1.00
                  0.180000D+01           1.0000000
            D   1   1.00
                  0.550000D+00           1.0000000
            F   1   1.00
                  0.102000D+01           1.0000000
            ****
            -F     0
            S   7   1.00
                  0.174507D+05           0.655972D-03
                  0.261768D+04           0.506944D-02
                  0.595857D+03           0.259899D-01
                  0.168651D+03           0.100353D+00
                  0.546654D+02           0.284095D+00
                  0.193717D+02           0.500000D+00
                  0.706202D+01           0.370721D+00
            S   2   1.00
                  0.131197D+02          -0.101997D+00
                  0.145046D+01           0.500000D+00
            S   1   1.00
                  0.588255D+00           1.0000000
            S   1   1.00
                  0.227960D+00           1.0000000
            P   4   1.00
                  0.779407D+02           0.931135D-02
                  0.180425D+02           0.663964D-01
                  0.542342D+01           0.246386D+00
                  0.184876D+01           0.500000D+00
            P   1   1.00
                  0.617455D+00           1.0000000
            P   1   1.00
                  0.185496D+00           1.0000000
            D   1   1.00
                  0.280000D+01           1.0000000
            D   1   1.00
                  0.800000D+00           1.0000000
            F   1   1.00
                  0.120000D+01           1.0000000
            ****
            -Cl     0
            S   8   1.00
                  0.154272D+06           0.222473D-03
                  0.231232D+05           0.172590D-02
                  0.526257D+04           0.899286D-02
                  0.148995D+04           0.367724D-01
                  0.485417D+03           0.121446D+00
                  0.174634D+03           0.304148D+00
                  0.672393D+02           0.500000D+00
                  0.265780D+02           0.360252D+00
            S   3   1.00
                  0.131826D+03          -0.531330D-01
                  0.400703D+02          -0.233346D+00
                  0.789448D+01           0.500000D+00
            S   2   1.00
                  0.427711D+01           0.500000D+00
                  0.196233D+01           0.370517D+00
            S   1   1.00
                  0.520793D+00           1.0000000
            S   1   1.00
                  0.181633D+00           1.0000000
            P   7   1.00
                  0.124440D+04           0.988206D-03
                  0.295109D+03           0.829674D-02
                  0.947224D+02           0.430906D-01
                  0.352588D+02           0.148443D+00
                  0.144211D+02           0.344744D+00
                  0.610371D+01           0.500000D+00
                  0.258886D+01           0.348278D+00
            P   2   1.00
                  0.109447D+02          -0.196768D-01
                  0.104413D+01           0.500000D+00
            P   1   1.00
                  0.376184D+00           1.0000000
            P   1   1.00
                  0.120613D+00           1.0000000
            D   1   1.00
                  0.231000D+01           1.0000000
            D   1   1.00
                  0.520000D+00           1.0000000
            F   1   1.00
                  0.720000D+00           1.0000000
            ****
            -S     0
            S   8   1.00
                  0.134700D+06           0.226231D-03
                  0.201904D+05           0.175488D-02
                  0.459528D+04           0.914190D-02
                  0.130109D+04           0.373551D-01
                  0.423902D+03           0.123121D+00
                  0.152485D+03           0.306801D+00
                  0.586925D+02           0.500000D+00
                  0.231461D+02           0.354358D+00
            S   3   1.00
                  0.116327D+03          -0.491772D-01
                  0.352841D+02          -0.215962D+00
                  0.677831D+01           0.500000D+00
            S   2   1.00
                  0.360404D+01           0.500000D+00
                  0.164871D+01           0.366278D+00
            S   1   1.00
                  0.421821D+00           1.0000000
            S   1   1.00
                  0.147554D+00           1.0000000
            P   7   1.00
                  0.104863D+04           0.105273D-02
                  0.248717D+03           0.879338D-02
                  0.797887D+02           0.453358D-01
                  0.296023D+02           0.154476D+00
                  0.120627D+02           0.352366D+00
                  0.507628D+01           0.500000D+00
                  0.213375D+01           0.346429D+00
            P   2   1.00
                  0.928958D+01          -0.185932D-01
                  0.837819D+00           0.500000D+00
            P   1   1.00
                  0.301495D+00           1.0000000
            P   1   1.00
                  0.974740D-01           1.0000000
            D   1   1.00
                  0.210000D+01           1.0000000
            D   1   1.00
                  0.480000D+00           1.0000000
            F   1   1.00
                  0.660000D+00           1.0000000
            ****
            -Br     0
            S    10   1.00
                  0.233625D+07           0.532336D-04
                  0.349961D+06           0.413715D-03
                  0.796444D+05           0.217123D-02
                  0.225555D+05           0.910109D-02
                  0.735546D+04           0.323789D-01
                  0.265352D+04           0.988755D-01
                  0.103517D+04           0.248138D+00
                  0.422205D+03           0.474328D+00
                  0.180035D+03           0.500000D+00
                  0.793308D+02           0.187769D+00
            S    4   1.00
                  0.620834D+03          -0.226511D-01
                  0.190829D+03          -0.109497D+00
                  0.312505D+02           0.500000D+00
                  0.135270D+02           0.492812D+00
            S    2   1.00
                  0.216097D+02          -0.165418D+00
                  0.372566D+01           0.500000D+00
            S    1   1.00
                  0.169770D+01           1.0000000
            S    1   1.00
                  0.489332D+00           1.0000000
            S    1   1.00
                  0.175712D+00           1.0000000
            P    8   1.00
                  0.960829D+04           0.478974D-03
                  0.227618D+04           0.417853D-02
                  0.736723D+03           0.229315D-01
                  0.281579D+03           0.892653D-01
                  0.118395D+03           0.255288D+00
                  0.527481D+02           0.479074D+00
                  0.245098D+02           0.500000D+00
                  0.112009D+02           0.200944D+00
            P    4   1.00
                  0.587849D+02          -0.189674D-01
                  0.918962D+01           0.264104D+00
                  0.413895D+01           0.500000D+00
                  0.184225D+01           0.319316D+00
            P    1   1.00
                  0.713862D+00           1.0000000
            P    1   1.00
                  0.274232D+00           1.0000000
            P    1   1.00
                  0.944411D-01           1.0000000
            D    7   1.00
                  0.398470D+03           0.204066D-02
                  0.118967D+03           0.175171D-01
                  0.450197D+02           0.829708D-01
                  0.190320D+02           0.236284D+00
                  0.855686D+01           0.428468D+00
                  0.382950D+01           0.500000D+00
                  0.166291D+01           0.349360D+00
            D    1   1.00
                  0.672953D+00           1.0000000
            D    1   1.00
                  0.252000D+00           1.0000000
            F    1   1.00
                  0.530000D+00           1.0000000
            ****
            -Si     0
            S    8   1.00
                  0.996133D+05           0.235546D-03
                  0.149311D+05           0.182707D-02
                  0.339820D+04           0.951425D-02
                  0.962140D+03           0.388172D-01
                  0.313430D+03           0.127328D+00
                  0.112683D+03           0.313522D+00
                  0.433372D+02           0.500000D+00
                  0.170029D+02           0.340347D+00
            S    3   1.00
                  0.884208D+02          -0.404451D-01
                  0.266756D+02          -0.178059D+00
                  0.479640D+01           0.500000D+00
            S    2   1.00
                  0.239385D+01           0.500000D+00
                  0.108333D+01           0.338016D+00
            S    1   1.00
                  0.252420D+00           1.0000000
            S    1   1.00
                  0.891210D-01           1.0000000
            P    7   1.00
                  0.709901D+03           0.123028D-02
                  0.168426D+03           0.101366D-01
                  0.539946D+02           0.511840D-01
                  0.198646D+02           0.169967D+00
                  0.801369D+01           0.370717D+00
                  0.331870D+01           0.500000D+00
                  0.136112D+01           0.344128D+00
            P    2   1.00
                  0.622158D+01          -0.166609D-01
                  0.503049D+00           0.500000D+00
            P    1   1.00
                  0.179848D+00           1.0000000
            P    1   1.00
                  0.591912D-01           1.0000000
            D    1   1.00
                  0.168000D+01           1.0000000
            D    1   1.00
                  0.380000D+00           1.0000000
            F    1   1.00
                  0.540000D+00           1.0000000
            ****
            -P     0
            S    8   1.00
                  0.116416D+06           0.230715D-03
                  0.174500D+05           0.178960D-02
                  0.397149D+04           0.932116D-02
                  0.112447D+04           0.380591D-01
                  0.366347D+03           0.125148D+00
                  0.131757D+03           0.310022D+00
                  0.506988D+02           0.500000D+00
                  0.199436D+02           0.347528D+00
            S    3   1.00
                  0.101878D+03          -0.446755D-01
                  0.308249D+02          -0.196376D+00
                  0.573688D+01           0.500000D+00
            S    2   1.00
                  0.296868D+01           0.500000D+00
                  0.135315D+01           0.355098D+00
            S    1   1.00
                  0.332196D+00           1.0000000
            S    1   1.00
                  0.116229D+00           1.0000000
            P    7   1.00
                  0.873928D+03           0.112375D-02
                  0.207298D+03           0.933330D-02
                  0.664628D+02           0.477213D-01
                  0.245665D+02           0.160733D+00
                  0.996820D+01           0.359760D+00
                  0.416536D+01           0.500000D+00
                  0.173022D+01           0.346593D+00
            P    2   1.00
                  0.772530D+01          -0.175718D-01
                  0.657252D+00           0.500000D+00
            P    1   1.00
                  0.239903D+00           1.0000000
            P    1   1.00
                  0.800988D-01           1.0000000
            D    1   1.00
                  0.189000D+01           1.0000000
            D    1   1.00
                  0.430000D+00           1.0000000
            F    1   1.00
                  0.600000D+00           1.0000000
            ****
            
 Initial command:
 /usr/local/apps/g16_b01_avx/g16/l1.exe "/wrk/irikura/Gau-8086.inp" -scrdir="/wrk/irikura/"
 Entering Link 1 = /usr/local/apps/g16_b01_avx/g16/l1.exe PID=      8088.
  
 Copyright (c) 1988-2017, Gaussian, Inc.  All Rights Reserved.
  
 This is part of the Gaussian(R) 16 program.  It is based on
 the Gaussian(R) 09 system (copyright 2009, Gaussian, Inc.),
 the Gaussian(R) 03 system (copyright 2003, Gaussian, Inc.),
 the Gaussian(R) 98 system (copyright 1998, Gaussian, Inc.),
 the Gaussian(R) 94 system (copyright 1995, Gaussian, Inc.),
 the Gaussian 92(TM) system (copyright 1992, Gaussian, Inc.),
 the Gaussian 90(TM) system (copyright 1990, Gaussian, Inc.),
 the Gaussian 88(TM) system (copyright 1988, Gaussian, Inc.),
 the Gaussian 86(TM) system (copyright 1986, Carnegie Mellon
 University), and the Gaussian 82(TM) system (copyright 1983,
 Carnegie Mellon University). Gaussian is a federally registered
 trademark of Gaussian, Inc.
  
 This software contains proprietary and confidential information,
 including trade secrets, belonging to Gaussian, Inc.
  
 This software is provided under written license and may be
 used, copied, transmitted, or stored only in accord with that
 written license.
  
 The following legend is applicable only to US Government
 contracts under FAR:
  
                    RESTRICTED RIGHTS LEGEND
  
 Use, reproduction and disclosure by the US Government is
 subject to restrictions as set forth in subparagraphs (a)
 and (c) of the Commercial Computer Software - Restricted
 Rights clause in FAR 52.227-19.
  
 Gaussian, Inc.
 340 Quinnipiac St., Bldg. 40, Wallingford CT 06492
  
  
 ---------------------------------------------------------------
 Warning -- This program may not be used in any manner that
 competes with the business of Gaussian, Inc. or will provide
 assistance to any competitor of Gaussian, Inc.  The licensee
 of this program is prohibited from giving any competitor of
 Gaussian, Inc. access to this program.  By using this program,
 the user acknowledges that Gaussian, Inc. is engaged in the
 business of creating and licensing software in the field of
 computational chemistry and represents and warrants to the
 licensee that it is not a competitor of Gaussian, Inc. and that
 it will not use this program in any manner prohibited above.
 ---------------------------------------------------------------
  

 Cite this work as:
 Gaussian 16, Revision B.01,
 M. J. Frisch, G. W. Trucks, H. B. Schlegel, G. E. Scuseria, 
 M. A. Robb, J. R. Cheeseman, G. Scalmani, V. Barone, 
 G. A. Petersson, H. Nakatsuji, X. Li, M. Caricato, A. V. Marenich, 
 J. Bloino, B. G. Janesko, R. Gomperts, B. Mennucci, H. P. Hratchian, 
 J. V. Ortiz, A. F. Izmaylov, J. L. Sonnenberg, D. Williams-Young, 
 F. Ding, F. Lipparini, F. Egidi, J. Goings, B. Peng, A. Petrone, 
 T. Henderson, D. Ranasinghe, V. G. Zakrzewski, J. Gao, N. Rega, 
 G. Zheng, W. Liang, M. Hada, M. Ehara, K. Toyota, R. Fukuda, 
 J. Hasegawa, M. Ishida, T. Nakajima, Y. Honda, O. Kitao, H. Nakai, 
 T. Vreven, K. Throssell, J. A. Montgomery, Jr., J. E. Peralta, 
 F. Ogliaro, M. J. Bearpark, J. J. Heyd, E. N. Brothers, K. N. Kudin, 
 V. N. Staroverov, T. A. Keith, R. Kobayashi, J. Normand, 
 K. Raghavachari, A. P. Rendell, J. C. Burant, S. S. Iyengar, 
 J. Tomasi, M. Cossi, J. M. Millam, M. Klene, C. Adamo, R. Cammi, 
 J. W. Ochterski, R. L. Martin, K. Morokuma, O. Farkas, 
 J. B. Foresman, and D. J. Fox, Gaussian, Inc., Wallingford CT, 2016.
 
 ******************************************
 Gaussian 16:  ES64L-G16RevB.01 20-Dec-2017
                17-Jun-2022 
 ******************************************
 %mem=1000mw
 %nprocs=12
 Will use up to   12 processors via shared memory.
 --------------------
 # b3lyp/gen opt freq
 --------------------
 1/18=20,19=15,26=3,38=1/1,3;
 2/9=110,12=2,17=6,18=5,40=1/2;
 3/5=7,11=2,25=1,30=1,71=1,74=-5/1,2,3;
 4//1;
 5/5=2,38=5/2;
 6/7=2,8=2,9=2,10=2,28=1/1;
 7//1,2,3,16;
 1/18=20,19=15,26=3/3(2);
 2/9=110/2;
 99//99;
 2/9=110/2;
 3/5=7,6=1,11=2,25=1,30=1,71=1,74=-5,82=7/1,2,3;
 4/5=5,16=3,69=1/1;
 5/5=2,38=5/2;
 7//1,2,3,16;
 1/18=20,19=15,26=3/3(-5);
 2/9=110/2;
 6/7=2,8=2,9=2,10=2,19=2,28=1/1;
 99/9=1/99;
 -----------------------------
 2-chlorophenyl, B3LYP/pcseg-2
 -----------------------------
 Symbolic Z-matrix:
 Charge =  0 Multiplicity = 2
 C                    -2.35269   0.0069    0. 
 H                    -3.43775  -0.00064   0. 
 C                    -1.6701    1.23209   0. 
 C                    -1.63733  -1.18898   0. 
 H                    -2.20819   2.17387   0. 
 H                    -2.16749  -2.13507   0. 
 C                    -0.29791   1.17858   0. 
 C                    -0.24428  -1.19215   0. 
 H                     0.31509  -2.1211    0. 
 C                     0.44345   0.02633   0. 
 Cl                    2.19233   0.03849   0. 
 

 GradGradGradGradGradGradGradGradGradGradGradGradGradGradGradGradGradGrad
 Berny optimization.
 Initialization pass.
                           ----------------------------
                           !    Initial Parameters    !
                           ! (Angstroms and Degrees)  !
 --------------------------                            --------------------------
 ! Name  Definition              Value          Derivative Info.                !
 --------------------------------------------------------------------------------
 ! R1    R(1,2)                  1.0851         estimate D2E/DX2                !
 ! R2    R(1,3)                  1.4025         estimate D2E/DX2                !
 ! R3    R(1,4)                  1.3935         estimate D2E/DX2                !
 ! R4    R(3,5)                  1.0847         estimate D2E/DX2                !
 ! R5    R(3,7)                  1.3732         estimate D2E/DX2                !
 ! R6    R(4,6)                  1.0845         estimate D2E/DX2                !
 ! R7    R(4,8)                  1.3931         estimate D2E/DX2                !
 ! R8    R(7,10)                 1.3701         estimate D2E/DX2                !
 ! R9    R(8,9)                  1.0844         estimate D2E/DX2                !
 ! R10   R(8,10)                 1.3992         estimate D2E/DX2                !
 ! R11   R(10,11)                1.7489         estimate D2E/DX2                !
 ! A1    A(2,1,3)              119.5215         estimate D2E/DX2                !
 ! A2    A(2,1,4)              120.4892         estimate D2E/DX2                !
 ! A3    A(3,1,4)              119.9893         estimate D2E/DX2                !
 ! A4    A(1,3,5)              121.1347         estimate D2E/DX2                !
 ! A5    A(1,3,7)              116.89           estimate D2E/DX2                !
 ! A6    A(5,3,7)              121.9753         estimate D2E/DX2                !
 ! A7    A(1,4,6)              119.8478         estimate D2E/DX2                !
 ! A8    A(1,4,8)              121.0178         estimate D2E/DX2                !
 ! A9    A(6,4,8)              119.1344         estimate D2E/DX2                !
 ! A10   A(3,7,10)             124.9907         estimate D2E/DX2                !
 ! A11   A(4,8,9)              121.1846         estimate D2E/DX2                !
 ! A12   A(4,8,10)             119.3105         estimate D2E/DX2                !
 ! A13   A(9,8,10)             119.5049         estimate D2E/DX2                !
 ! A14   A(7,10,8)             117.8018         estimate D2E/DX2                !
 ! A15   A(7,10,11)            122.3591         estimate D2E/DX2                !
 ! A16   A(8,10,11)            119.8391         estimate D2E/DX2                !
 ! D1    D(2,1,3,5)              0.0            estimate D2E/DX2                !
 ! D2    D(2,1,3,7)            180.0            estimate D2E/DX2                !
 ! D3    D(4,1,3,5)            180.0            estimate D2E/DX2                !
 ! D4    D(4,1,3,7)              0.0            estimate D2E/DX2                !
 ! D5    D(2,1,4,6)              0.0            estimate D2E/DX2                !
 ! D6    D(2,1,4,8)            180.0            estimate D2E/DX2                !
 ! D7    D(3,1,4,6)            180.0            estimate D2E/DX2                !
 ! D8    D(3,1,4,8)              0.0            estimate D2E/DX2                !
 ! D9    D(1,3,7,10)             0.0            estimate D2E/DX2                !
 ! D10   D(5,3,7,10)           180.0            estimate D2E/DX2                !
 ! D11   D(1,4,8,9)            180.0            estimate D2E/DX2                !
 ! D12   D(1,4,8,10)             0.0            estimate D2E/DX2                !
 ! D13   D(6,4,8,9)              0.0            estimate D2E/DX2                !
 ! D14   D(6,4,8,10)           180.0            estimate D2E/DX2                !
 ! D15   D(3,7,10,8)             0.0            estimate D2E/DX2                !
 ! D16   D(3,7,10,11)          180.0            estimate D2E/DX2                !
 ! D17   D(4,8,10,7)             0.0            estimate D2E/DX2                !
 ! D18   D(4,8,10,11)          180.0            estimate D2E/DX2                !
 ! D19   D(9,8,10,7)           180.0            estimate D2E/DX2                !
 ! D20   D(9,8,10,11)            0.0            estimate D2E/DX2                !
 --------------------------------------------------------------------------------
 Trust Radius=3.00D-01 FncErr=1.00D-07 GrdErr=1.00D-06 EigMax=2.50D+02 EigMin=1.00D-04
 Number of steps in this run=     57 maximum allowed number of steps=    100.
 GradGradGradGradGradGradGradGradGradGradGradGradGradGradGradGradGradGrad

                          Input orientation:                          
 ---------------------------------------------------------------------
 Center     Atomic      Atomic             Coordinates (Angstroms)
 Number     Number       Type             X           Y           Z
 ---------------------------------------------------------------------
      1          6           0       -2.352686    0.006904    0.000000
      2          1           0       -3.437746   -0.000635    0.000000
      3          6           0       -1.670098    1.232093    0.000000
      4          6           0       -1.637327   -1.188975    0.000000
      5          1           0       -2.208191    2.173871    0.000000
      6          1           0       -2.167491   -2.135074    0.000000
      7          6           0       -0.297907    1.178577    0.000000
      8          6           0       -0.244279   -1.192147    0.000000
      9          1           0        0.315086   -2.121097    0.000000
     10          6           0        0.443447    0.026333    0.000000
     11         17           0        2.192328    0.038486    0.000000
 ---------------------------------------------------------------------
                    Distance matrix (angstroms):
                    1          2          3          4          5
     1  C    0.000000
     2  H    1.085086   0.000000
     3  C    1.402503   2.155040   0.000000
     4  C    1.393508   2.157234   2.421290   0.000000
     5  H    2.171779   2.498056   1.084661   3.410956   0.000000
     6  H    2.149969   2.483823   3.403706   1.084517   4.309137
     7  C    2.365361   3.353972   1.373234   2.720174   2.154018
     8  C    2.425511   3.408509   2.812454   1.393052   3.897054
     9  H    3.412535   4.310465   3.896773   2.163508   4.981333
    10  C    2.796201   3.881287   2.433296   2.409688   3.412199
    11  Cl   4.545124   5.630210   4.042652   4.021557   4.891261
                    6          7          8          9         10
     6  H    0.000000
     7  C    3.804685   0.000000
     8  C    2.141928   2.371330   0.000000
     9  H    2.482616   3.356130   1.084360   0.000000
    10  C    3.389495   1.370136   1.399164   2.151263   0.000000
    11  Cl   4.871590   2.738810   2.729746   2.861440   1.748923
                   11
    11  Cl   0.000000
 Stoichiometry    C6H4Cl(2)
 Framework group  CS[SG(C6H4Cl)]
 Deg. of freedom    19
 Full point group                 CS      NOp   2
 Largest Abelian subgroup         CS      NOp   2
 Largest concise Abelian subgroup C1      NOp   1
                         Standard orientation:                         
 ---------------------------------------------------------------------
 Center     Atomic      Atomic             Coordinates (Angstroms)
 Number     Number       Type             X           Y           Z
 ---------------------------------------------------------------------
      1          6           0        0.217273   -2.258508    0.000000
      2          1           0        0.301587   -3.340314    0.000000
      3          6           0        1.380300   -1.474684    0.000000
      4          6           0       -1.034856   -1.646921    0.000000
      5          1           0        2.364237   -1.931145    0.000000
      6          1           0       -1.932694   -2.255250    0.000000
      7          6           0        1.210850   -0.111944    0.000000
      8          6           0       -1.155908   -0.259139    0.000000
      9          1           0       -2.128863    0.219604   -0.000000
     10          6           0       -0.000000    0.529238   -0.000000
     11         17           0       -0.135895    2.272874   -0.000000
 ---------------------------------------------------------------------
 Rotational constants (GHZ):           6.0995208           1.5505576           1.2362826
 General basis read from cards:  (5D, 7F)
 There are   215 symmetry adapted cartesian basis functions of A'  symmetry.
 There are    94 symmetry adapted cartesian basis functions of A"  symmetry.
 There are   183 symmetry adapted basis functions of A'  symmetry.
 There are    87 symmetry adapted basis functions of A"  symmetry.
   270 basis functions,   448 primitive gaussians,   309 cartesian basis functions
    29 alpha electrons       28 beta electrons
       nuclear repulsion energy       303.1259254899 Hartrees.
 NAtoms=   11 NActive=   11 NUniq=   11 SFac= 1.00D+00 NAtFMM=   60 NAOKFM=F Big=F
 Integral buffers will be    131072 words long.
 Raffenetti 2 integral format.
 Two-electron integral symmetry is turned on.
 One-electron integrals computed using PRISM.
 NBasis=   270 RedAO= T EigKep=  3.55D-05  NBF=   183    87
 NBsUse=   270 1.00D-06 EigRej= -1.00D+00 NBFU=   183    87
 ExpMin= 7.42D-02 ExpMax= 1.54D+05 ExpMxC= 1.49D+03 IAcc=3 IRadAn=         5 AccDes= 0.00D+00
 Harris functional with IExCor=  402 and IRadAn=       5 diagonalized for initial guess.
 HarFok:  IExCor=  402 AccDes= 0.00D+00 IRadAn=         5 IDoV= 1 UseB2=F ITyADJ=14
 ICtDFT=  3500011 ScaDFX=  1.000000  1.000000  1.000000  1.000000
 FoFCou: FMM=F IPFlag=           0 FMFlag=      100000 FMFlg1=           0
         NFxFlg=           0 DoJE=T BraDBF=F KetDBF=T FulRan=T
         wScrn=  0.000000 ICntrl=       500 IOpCl=  0 I1Cent=   200000004 NGrid=           0
         NMat0=    1 NMatS0=      1 NMatT0=    0 NMatD0=    1 NMtDS0=    0 NMtDT0=    0
 Petite list used in FoFCou.
 Initial guess orbital symmetries:
 Alpha Orbitals:
       Occupied  (A') (A') (A') (A') (A') (A') (A') (A') (A') (A')
                 (A") (A') (A') (A') (A') (A') (A') (A') (A') (A')
                 (A') (A') (A") (A') (A") (A") (A') (A") (A')
       Virtual   (A") (A") (A') (A') (A') (A") (A') (A') (A') (A')
                 (A') (A") (A') (A') (A") (A') (A") (A') (A') (A')
                 (A') (A") (A') (A') (A") (A') (A') (A') (A') (A')
                 (A") (A') (A") (A') (A') (A') (A') (A') (A') (A")
                 (A') (A') (A') (A") (A') (A') (A") (A') (A') (A')
                 (A") (A") (A') (A") (A') (A') (A") (A') (A') (A")
                 (A') (A') (A') (A') (A") (A') (A") (A') (A') (A")
                 (A') (A") (A") (A") (A') (A") (A') (A') (A') (A")
                 (A') (A') (A") (A') (A") (A') (A") (A") (A') (A')
                 (A") (A") (A') (A') (A') (A') (A') (A') (A') (A')
                 (A') (A") (A') (A') (A') (A") (A') (A') (A') (A')
                 (A") (A') (A') (A") (A") (A') (A') (A') (A') (A')
                 (A") (A') (A') (A') (A') (A') (A") (A') (A") (A')
                 (A") (A') (A") (A") (A") (A") (A') (A") (A') (A")
                 (A') (A') (A') (A') (A') (A") (A') (A') (A") (A')
                 (A') (A") (A') (A') (A") (A') (A') (A') (A") (A")
                 (A') (A") (A') (A') (A") (A") (A') (A') (A") (A')
                 (A") (A') (A') (A") (A') (A") (A') (A") (A') (A")
                 (A') (A") (A") (A') (A") (A") (A') (A") (A') (A")
                 (A') (A") (A") (A') (A") (A') (A") (A") (A') (A")
                 (A') (A") (A") (A') (A') (A') (A') (A') (A') (A")
                 (A') (A') (A') (A') (A") (A') (A') (A") (A") (A')
                 (A') (A') (A') (A") (A') (A') (A') (A") (A') (A')
                 (A') (A') (A') (A') (A') (A') (A') (A') (A') (A')
                 (A')
 Beta  Orbitals:
       Occupied  (A') (A') (A') (A') (A') (A') (A') (A') (A') (A')
                 (A") (A') (A') (A') (A') (A') (A') (A') (A') (A')
                 (A') (A') (A") (A') (A") (A") (A') (A")
       Virtual   (A') (A") (A") (A') (A') (A') (A") (A') (A') (A')
                 (A') (A') (A") (A') (A') (A") (A') (A") (A') (A')
                 (A') (A') (A") (A') (A') (A") (A') (A') (A') (A')
                 (A') (A") (A') (A") (A') (A') (A') (A') (A') (A')
                 (A") (A') (A') (A') (A") (A') (A') (A") (A') (A')
                 (A') (A") (A") (A') (A") (A') (A') (A") (A') (A')
                 (A") (A') (A') (A') (A') (A") (A') (A") (A') (A')
                 (A") (A') (A") (A") (A") (A') (A") (A') (A') (A')
                 (A") (A') (A') (A") (A') (A") (A') (A") (A") (A')
                 (A') (A") (A") (A') (A') (A') (A') (A') (A') (A')
                 (A') (A') (A") (A') (A') (A') (A") (A') (A') (A')
                 (A') (A") (A') (A') (A") (A") (A') (A') (A') (A')
                 (A') (A") (A') (A') (A') (A') (A') (A") (A') (A")
                 (A') (A") (A') (A") (A") (A") (A") (A') (A") (A')
                 (A") (A') (A') (A') (A') (A') (A") (A') (A') (A")
                 (A') (A') (A") (A') (A') (A") (A') (A') (A') (A")
                 (A") (A') (A") (A') (A') (A") (A") (A') (A') (A")
                 (A') (A") (A') (A') (A") (A') (A") (A') (A") (A')
                 (A") (A') (A") (A") (A') (A") (A") (A') (A") (A')
                 (A") (A') (A") (A") (A') (A") (A') (A") (A") (A')
                 (A") (A') (A") (A") (A') (A') (A') (A') (A') (A')
                 (A") (A') (A') (A') (A') (A") (A') (A') (A") (A")
                 (A') (A') (A') (A') (A") (A') (A') (A') (A") (A')
                 (A') (A') (A') (A') (A') (A') (A') (A') (A') (A')
                 (A') (A')
 The electronic state of the initial guess is 2-A'.
 Initial guess <Sx>= 0.0000 <Sy>= 0.0000 <Sz>= 0.5000 <S**2>= 0.7500 S= 0.5000
 Keep R1 and R2 ints in memory in symmetry-blocked form, NReq=1020852588.
 Requested convergence on RMS density matrix=1.00D-08 within 128 cycles.
 Requested convergence on MAX density matrix=1.00D-06.
 Requested convergence on             energy=1.00D-06.
 No special actions if energy rises.
 Integral accuracy reduced to 1.0D-05 until final iterations.
 Initial convergence to 1.0D-05 achieved.  Increase integral accuracy.
 SCF Done:  E(UB3LYP) =  -691.282593373     A.U. after   17 cycles
            NFock= 17  Conv=0.96D-08     -V/T= 2.0019
 <Sx>= 0.0000 <Sy>= 0.0000 <Sz>= 0.5000 <S**2>= 0.7575 S= 0.5037
 <L.S>=  0.00000000000    
 Annihilation of the first spin contaminant:
 S**2 before annihilation     0.7575,   after     0.7500

 **********************************************************************

            Population analysis using the SCF Density.

 **********************************************************************

 Orbital symmetries:
 Alpha Orbitals:
       Occupied  (A') (A') (A') (A') (A') (A') (A') (A') (A') (A")
                 (A') (A') (A') (A') (A') (A') (A') (A') (A') (A')
                 (A') (A') (A") (A') (A") (A') (A") (A') (A")
       Virtual   (A") (A") (A') (A') (A') (A') (A') (A') (A") (A')
                 (A') (A") (A') (A") (A') (A") (A') (A') (A') (A")
                 (A') (A') (A") (A') (A') (A') (A') (A') (A') (A")
                 (A") (A') (A') (A') (A') (A') (A') (A') (A') (A")
                 (A') (A") (A') (A') (A') (A') (A") (A') (A') (A')
                 (A') (A") (A") (A") (A') (A') (A") (A") (A') (A')
                 (A') (A') (A') (A') (A') (A") (A') (A") (A') (A')
                 (A") (A") (A') (A") (A") (A') (A") (A') (A') (A")
                 (A') (A') (A") (A') (A") (A') (A") (A") (A') (A')
                 (A") (A") (A') (A') (A') (A') (A') (A') (A') (A')
                 (A") (A') (A') (A') (A") (A') (A') (A') (A") (A')
                 (A') (A') (A') (A") (A") (A') (A') (A') (A') (A")
                 (A') (A') (A') (A') (A') (A') (A') (A") (A") (A')
                 (A") (A') (A") (A") (A") (A") (A') (A") (A') (A")
                 (A') (A') (A') (A') (A") (A') (A') (A') (A") (A')
                 (A') (A") (A') (A') (A") (A') (A') (A') (A") (A")
                 (A") (A') (A') (A") (A') (A") (A') (A') (A") (A')
                 (A') (A") (A') (A") (A') (A') (A") (A") (A') (A')
                 (A") (A") (A") (A') (A") (A') (A") (A") (A') (A")
                 (A') (A") (A") (A') (A") (A") (A') (A") (A') (A")
                 (A') (A") (A") (A') (A') (A') (A') (A') (A") (A')
                 (A') (A') (A') (A') (A") (A') (A') (A") (A") (A')
                 (A') (A') (A") (A') (A') (A') (A') (A") (A') (A')
                 (A') (A') (A') (A') (A') (A') (A') (A') (A') (A')
                 (A')
 Beta  Orbitals:
       Occupied  (A') (A') (A') (A') (A') (A') (A') (A') (A') (A")
                 (A') (A') (A') (A') (A') (A') (A') (A') (A') (A')
                 (A') (A") (A') (A') (A") (A') (A") (A")
       Virtual   (A') (A") (A") (A') (A') (A') (A') (A') (A') (A")
                 (A') (A') (A") (A') (A") (A') (A") (A') (A') (A')
                 (A") (A') (A") (A') (A') (A') (A') (A') (A') (A')
                 (A") (A") (A') (A') (A') (A') (A') (A') (A') (A")
                 (A') (A') (A") (A') (A') (A') (A') (A") (A') (A')
                 (A') (A") (A') (A") (A") (A') (A') (A") (A") (A')
                 (A') (A') (A') (A') (A') (A') (A") (A') (A") (A')
                 (A') (A") (A") (A') (A") (A") (A') (A") (A') (A')
                 (A") (A') (A') (A") (A') (A") (A') (A") (A") (A')
                 (A') (A") (A") (A') (A') (A') (A') (A') (A') (A')
                 (A') (A") (A') (A') (A') (A") (A') (A') (A') (A")
                 (A') (A') (A') (A') (A") (A") (A') (A') (A') (A')
                 (A") (A') (A') (A') (A') (A') (A') (A') (A") (A")
                 (A') (A") (A') (A") (A") (A") (A") (A') (A") (A')
                 (A") (A') (A') (A') (A') (A") (A') (A') (A') (A")
                 (A') (A') (A") (A') (A') (A") (A') (A') (A') (A")
                 (A") (A') (A") (A') (A") (A") (A') (A') (A') (A")
                 (A') (A') (A") (A') (A') (A") (A') (A") (A") (A')
                 (A') (A") (A") (A") (A') (A") (A") (A") (A') (A')
                 (A") (A') (A") (A") (A') (A") (A") (A') (A") (A')
                 (A") (A') (A") (A") (A') (A') (A') (A') (A') (A")
                 (A') (A') (A') (A') (A') (A") (A') (A') (A") (A")
                 (A') (A') (A') (A") (A') (A') (A') (A') (A") (A')
                 (A') (A') (A') (A') (A') (A') (A') (A') (A') (A')
                 (A') (A')
 The electronic state is 2-A'.
 Alpha  occ. eigenvalues -- -101.51998 -10.25063 -10.22002 -10.20240 -10.20224
 Alpha  occ. eigenvalues --  -10.19954 -10.19547  -9.46492  -7.22686  -7.21773
 Alpha  occ. eigenvalues --   -7.21740  -0.90598  -0.85115  -0.77048  -0.75054
 Alpha  occ. eigenvalues --   -0.63119  -0.61106  -0.53086  -0.48757  -0.47336
 Alpha  occ. eigenvalues --   -0.45011  -0.41383  -0.41289  -0.38470  -0.34675
 Alpha  occ. eigenvalues --   -0.32328  -0.28226  -0.27121  -0.26320
 Alpha virt. eigenvalues --   -0.03763  -0.03062   0.00770   0.03169   0.03760
 Alpha virt. eigenvalues --    0.05538   0.07247   0.11395   0.11729   0.14093
 Alpha virt. eigenvalues --    0.15271   0.15622   0.18011   0.19076   0.19611
 Alpha virt. eigenvalues --    0.20285   0.21365   0.22682   0.24478   0.26238
 Alpha virt. eigenvalues --    0.26527   0.27883   0.27891   0.28693   0.28960
 Alpha virt. eigenvalues --    0.30849   0.31793   0.33212   0.34567   0.35041
 Alpha virt. eigenvalues --    0.35428   0.35919   0.37558   0.41918   0.42995
 Alpha virt. eigenvalues --    0.44656   0.45696   0.48225   0.51905   0.52226
 Alpha virt. eigenvalues --    0.53637   0.56376   0.57706   0.59535   0.60056
 Alpha virt. eigenvalues --    0.63519   0.65784   0.66087   0.67197   0.73543
 Alpha virt. eigenvalues --    0.76247   0.76267   0.78317   0.80875   0.86172
 Alpha virt. eigenvalues --    0.86575   0.90979   0.95798   0.96432   0.96932
 Alpha virt. eigenvalues --    0.98095   1.01701   1.04800   1.05603   1.09015
 Alpha virt. eigenvalues --    1.09314   1.11778   1.11904   1.15623   1.15754
 Alpha virt. eigenvalues --    1.16737   1.20512   1.21876   1.23639   1.27154
 Alpha virt. eigenvalues --    1.27275   1.28362   1.30589   1.32530   1.36385
 Alpha virt. eigenvalues --    1.38946   1.41427   1.41682   1.42971   1.50251
 Alpha virt. eigenvalues --    1.50870   1.54318   1.56563   1.57264   1.58155
 Alpha virt. eigenvalues --    1.60191   1.62014   1.65366   1.67647   1.71408
 Alpha virt. eigenvalues --    1.75227   1.77793   1.81191   1.83968   1.87092
 Alpha virt. eigenvalues --    1.88790   1.89422   1.91300   1.93356   1.96733
 Alpha virt. eigenvalues --    1.97531   2.03392   2.09190   2.11635   2.12513
 Alpha virt. eigenvalues --    2.15642   2.17491   2.18538   2.19306   2.19426
 Alpha virt. eigenvalues --    2.26407   2.28295   2.29221   2.31004   2.32720
 Alpha virt. eigenvalues --    2.33954   2.50201   2.54571   2.58403   2.60292
 Alpha virt. eigenvalues --    2.75337   2.79889   2.83362   2.91255   3.05763
 Alpha virt. eigenvalues --    3.11102   3.13917   3.16034   3.19024   3.22993
 Alpha virt. eigenvalues --    3.23486   3.28689   3.30206   3.34575   3.35345
 Alpha virt. eigenvalues --    3.37111   3.40933   3.45687   3.50437   3.51597
 Alpha virt. eigenvalues --    3.53192   3.56138   3.59059   3.61534   3.64026
 Alpha virt. eigenvalues --    3.65588   3.67019   3.69081   3.78519   3.78834
 Alpha virt. eigenvalues --    3.80980   3.84995   3.92178   3.93872   3.95868
 Alpha virt. eigenvalues --    3.98788   3.99488   4.02243   4.03905   4.04651
 Alpha virt. eigenvalues --    4.04923   4.07453   4.08067   4.13390   4.15321
 Alpha virt. eigenvalues --    4.16974   4.17311   4.20257   4.21784   4.22700
 Alpha virt. eigenvalues --    4.26137   4.26444   4.28184   4.29186   4.31402
 Alpha virt. eigenvalues --    4.32604   4.34327   4.35335   4.37278   4.40309
 Alpha virt. eigenvalues --    4.41427   4.41806   4.43094   4.47801   4.48860
 Alpha virt. eigenvalues --    4.50410   4.51071   4.52942   4.57610   4.60091
 Alpha virt. eigenvalues --    4.68953   4.69940   4.71604   4.73617   4.76981
 Alpha virt. eigenvalues --    4.78366   4.83371   4.85490   4.89242   4.91917
 Alpha virt. eigenvalues --    4.96254   4.98434   5.00044   5.03497   5.04176
 Alpha virt. eigenvalues --    5.08572   5.14630   5.19306   5.23209   5.25074
 Alpha virt. eigenvalues --    5.27663   5.28992   5.33262   5.35182   5.36669
 Alpha virt. eigenvalues --    5.41751   5.48017   5.49116   5.49993   5.55680
 Alpha virt. eigenvalues --    5.64950   5.68715   5.75318   5.79668   5.85634
 Alpha virt. eigenvalues --    5.89680   5.93844   6.07770   6.09681   6.18359
 Alpha virt. eigenvalues --    6.32646   6.41880   6.55890   6.96360  10.35897
 Alpha virt. eigenvalues --   33.26816
  Beta  occ. eigenvalues -- -101.51976 -10.25079 -10.20383 -10.20250 -10.20124
  Beta  occ. eigenvalues --  -10.19819 -10.19598  -9.46471  -7.22620  -7.21767
  Beta  occ. eigenvalues --   -7.21721  -0.89970  -0.84796  -0.76335  -0.74185
  Beta  occ. eigenvalues --   -0.62529  -0.60252  -0.52443  -0.48141  -0.46732
  Beta  occ. eigenvalues --   -0.44686  -0.41028  -0.40329  -0.38103  -0.34683
  Beta  occ. eigenvalues --   -0.32175  -0.27732  -0.26061
  Beta virt. eigenvalues --   -0.11418  -0.03838  -0.02144   0.00990   0.03316
  Beta virt. eigenvalues --    0.03874   0.05744   0.07289   0.12171   0.12311
  Beta virt. eigenvalues --    0.14554   0.15400   0.15709   0.18261   0.19133
  Beta virt. eigenvalues --    0.20120   0.20464   0.21721   0.22936   0.24848
  Beta virt. eigenvalues --    0.26408   0.26959   0.27879   0.27983   0.29129
  Beta virt. eigenvalues --    0.29316   0.31109   0.31907   0.33376   0.34779
  Beta virt. eigenvalues --    0.35229   0.35464   0.36021   0.37870   0.42142
  Beta virt. eigenvalues --    0.43447   0.45263   0.46113   0.48604   0.52598
  Beta virt. eigenvalues --    0.53183   0.54297   0.56404   0.58173   0.59613
  Beta virt. eigenvalues --    0.61028   0.63696   0.65913   0.66390   0.67684
  Beta virt. eigenvalues --    0.74102   0.76440   0.77018   0.78474   0.81162
  Beta virt. eigenvalues --    0.86796   0.87224   0.92328   0.96670   0.96743
  Beta virt. eigenvalues --    0.97128   0.98298   1.02268   1.05649   1.06200
  Beta virt. eigenvalues --    1.09212   1.09513   1.12091   1.12104   1.15987
  Beta virt. eigenvalues --    1.16464   1.17480   1.20854   1.23552   1.23757
  Beta virt. eigenvalues --    1.27172   1.28070   1.28846   1.31455   1.33273
  Beta virt. eigenvalues --    1.37204   1.40237   1.41679   1.41783   1.43548
  Beta virt. eigenvalues --    1.50351   1.51355   1.54325   1.56889   1.57828
  Beta virt. eigenvalues --    1.58525   1.60897   1.62484   1.66391   1.68170
  Beta virt. eigenvalues --    1.72421   1.75677   1.78256   1.81608   1.84272
  Beta virt. eigenvalues --    1.87505   1.89235   1.89709   1.91647   1.93973
  Beta virt. eigenvalues --    1.96995   1.98606   2.03872   2.09995   2.11634
  Beta virt. eigenvalues --    2.12701   2.16063   2.17823   2.18838   2.19429
  Beta virt. eigenvalues --    2.19639   2.26647   2.28681   2.29411   2.32153
  Beta virt. eigenvalues --    2.33055   2.34242   2.50667   2.55781   2.58863
  Beta virt. eigenvalues --    2.61070   2.75528   2.80809   2.83787   2.91923
  Beta virt. eigenvalues --    3.07450   3.12307   3.14686   3.16682   3.20299
  Beta virt. eigenvalues --    3.23311   3.23758   3.30048   3.30508   3.35301
  Beta virt. eigenvalues --    3.35849   3.38529   3.41376   3.46249   3.50745
  Beta virt. eigenvalues --    3.51741   3.53337   3.56440   3.60038   3.62062
  Beta virt. eigenvalues --    3.64302   3.66193   3.68078   3.69587   3.79073
  Beta virt. eigenvalues --    3.79096   3.81571   3.85402   3.92922   3.95076
  Beta virt. eigenvalues --    3.96014   4.00313   4.00431   4.03334   4.04042
  Beta virt. eigenvalues --    4.05219   4.05528   4.08085   4.08625   4.14033
  Beta virt. eigenvalues --    4.15671   4.17233   4.17496   4.20478   4.22902
  Beta virt. eigenvalues --    4.23015   4.26443   4.26996   4.29456   4.29485
  Beta virt. eigenvalues --    4.32127   4.32957   4.34473   4.36146   4.38819
  Beta virt. eigenvalues --    4.40611   4.42240   4.43355   4.43738   4.48271
  Beta virt. eigenvalues --    4.49422   4.50715   4.51475   4.53619   4.57905
  Beta virt. eigenvalues --    4.60389   4.69595   4.70316   4.71695   4.73994
  Beta virt. eigenvalues --    4.77364   4.78779   4.84263   4.85987   4.89845
  Beta virt. eigenvalues --    4.92754   4.97152   4.99324   5.00560   5.03970
  Beta virt. eigenvalues --    5.04779   5.09014   5.15481   5.20888   5.23724
  Beta virt. eigenvalues --    5.25183   5.28297   5.29474   5.33598   5.35534
  Beta virt. eigenvalues --    5.37044   5.42494   5.48601   5.49326   5.50866
  Beta virt. eigenvalues --    5.56079   5.65477   5.69120   5.75467   5.80750
  Beta virt. eigenvalues --    5.85927   5.90291   5.94490   6.08701   6.10166
  Beta virt. eigenvalues --    6.18825   6.33429   6.42266   6.56107   6.96892
  Beta virt. eigenvalues --   10.36383  33.26856
          Condensed to atoms (all electrons):
               1          2          3          4          5          6
     1  C    4.885153   0.445613   0.443903   0.501899  -0.049528  -0.057788
     2  H    0.445613   0.613841  -0.049848  -0.051082  -0.007026  -0.010405
     3  C    0.443903  -0.049848   4.860178  -0.050380   0.438969   0.015812
     4  C    0.501899  -0.051082  -0.050380   4.850819   0.007501   0.456988
     5  H   -0.049528  -0.007026   0.438969   0.007501   0.590333  -0.000058
     6  H   -0.057788  -0.010405   0.015812   0.456988  -0.000058   0.619249
     7  C   -0.042616   0.013845   0.479710  -0.066765  -0.038031  -0.005188
     8  C   -0.051636   0.013418  -0.079510   0.468348  -0.001195  -0.051214
     9  H    0.013233   0.000108  -0.005607  -0.047424   0.000162  -0.010756
    10  C   -0.058288  -0.003642  -0.031166  -0.039974   0.006229   0.015791
    11  Cl  -0.000168   0.000089   0.012233   0.013040  -0.000248  -0.000586
               7          8          9         10         11
     1  C   -0.042616  -0.051636   0.013233  -0.058288  -0.000168
     2  H    0.013845   0.013418   0.000108  -0.003642   0.000089
     3  C    0.479710  -0.079510  -0.005607  -0.031166   0.012233
     4  C   -0.066765   0.468348  -0.047424  -0.039974   0.013040
     5  H   -0.038031  -0.001195   0.000162   0.006229  -0.000248
     6  H   -0.005188  -0.051214  -0.010756   0.015791  -0.000586
     7  C    5.273317  -0.028482   0.015103   0.481543  -0.061751
     8  C   -0.028482   4.943758   0.451469   0.433266  -0.074518
     9  H    0.015103   0.451469   0.599285  -0.067861   0.005861
    10  C    0.481543   0.433266  -0.067861   4.886760   0.266282
    11  Cl  -0.061751  -0.074518   0.005861   0.266282  16.961954
          Atomic-Atomic Spin Densities.
               1          2          3          4          5          6
     1  C    0.105987  -0.009381   0.001161  -0.004829  -0.016094   0.000287
     2  H   -0.009381   0.014528   0.001252  -0.002170   0.001921  -0.000860
     3  C    0.001161   0.001252  -0.064985   0.006386   0.016098  -0.000592
     4  C   -0.004829  -0.002170   0.006386  -0.033101   0.000518   0.004268
     5  H   -0.016094   0.001921   0.016098   0.000518   0.030377  -0.000089
     6  H    0.000287  -0.000860  -0.000592   0.004268  -0.000089   0.001448
     7  C   -0.017710   0.003351  -0.023191  -0.006672  -0.009146  -0.000996
     8  C    0.011745  -0.000312  -0.002779  -0.004360  -0.001387  -0.000828
     9  H   -0.000651   0.000159   0.000180  -0.004341   0.000053  -0.000828
    10  C   -0.009061   0.000539   0.011682   0.005848   0.001274  -0.000891
    11  Cl  -0.001078   0.000033  -0.000270  -0.000058   0.000128  -0.000051
               7          8          9         10         11
     1  C   -0.017710   0.011745  -0.000651  -0.009061  -0.001078
     2  H    0.003351  -0.000312   0.000159   0.000539   0.000033
     3  C   -0.023191  -0.002779   0.000180   0.011682  -0.000270
     4  C   -0.006672  -0.004360  -0.004341   0.005848  -0.000058
     5  H   -0.009146  -0.001387   0.000053   0.001274   0.000128
     6  H   -0.000996  -0.000828  -0.000828  -0.000891  -0.000051
     7  C    1.048987  -0.013045   0.003434  -0.012570  -0.014312
     8  C   -0.013045   0.083048  -0.007550  -0.001217  -0.011763
     9  H    0.003434  -0.007550   0.017821   0.002211   0.001320
    10  C   -0.012570  -0.001217   0.002211  -0.054452   0.014854
    11  Cl  -0.014312  -0.011763   0.001320   0.014854   0.031095
 Mulliken charges and spin densities:
               1          2
     1  C   -0.029778   0.060376
     2  H    0.035088   0.009061
     3  C   -0.034295  -0.055058
     4  C   -0.042969  -0.038510
     5  H    0.052892   0.023654
     6  H    0.028156   0.000870
     7  C   -0.020685   0.958131
     8  C   -0.023706   0.051553
     9  H    0.046427   0.011807
    10  C    0.111058  -0.041783
    11  Cl  -0.122188   0.019899
 Sum of Mulliken charges =  -0.00000   1.00000
 Mulliken charges and spin densities with hydrogens summed into heavy atoms:
               1          2
     1  C    0.005310   0.069436
     3  C    0.018597  -0.031404
     4  C   -0.014813  -0.037640
     7  C   -0.020685   0.958131
     8  C    0.022721   0.063361
    10  C    0.111058  -0.041783
    11  Cl  -0.122188   0.019899
 Electronic spatial extent (au):  <R**2>=            886.0455
 Charge=             -0.0000 electrons
 Dipole moment (field-independent basis, Debye):
    X=             -0.5537    Y=             -2.1807    Z=              0.0000  Tot=              2.2499
 Quadrupole moment (field-independent basis, Debye-Ang):
   XX=            -43.8027   YY=            -44.7977   ZZ=            -50.5656
   XY=             -1.0690   XZ=              0.0000   YZ=              0.0000
 Traceless Quadrupole moment (field-independent basis, Debye-Ang):
   XX=              2.5859   YY=              1.5910   ZZ=             -4.1769
   XY=             -1.0690   XZ=              0.0000   YZ=              0.0000
 Octapole moment (field-independent basis, Debye-Ang**2):
  XXX=             -5.2603  YYY=             -4.1619  ZZZ=             -0.0000  XYY=              0.2984
  XXY=             -3.8041  XXZ=             -0.0000  XZZ=             -0.8147  YZZ=              6.9810
  YYZ=             -0.0000  XYZ=              0.0000
 Hexadecapole moment (field-independent basis, Debye-Ang**3):
 XXXX=           -274.3760 YYYY=           -789.1678 ZZZZ=            -60.4529 XXXY=             17.2010
 XXXZ=              0.0000 YYYX=             20.5527 YYYZ=              0.0000 ZZZX=              0.0000
 ZZZY=              0.0000 XXYY=           -179.5271 XXZZ=            -65.1484 YYZZ=           -163.2085
 XXYZ=              0.0000 YYXZ=              0.0000 ZZXY=              8.9256
 N-N= 3.031259254899D+02 E-N=-2.237013856280D+03  KE= 6.899577086144D+02
 Symmetry A'   KE= 6.373577772992D+02
 Symmetry A"   KE= 5.259993131522D+01
 Symmetry A'   SP= 1.000000000000D+00
 Symmetry A"   SP=-3.633524010100D-15
                          Isotropic Fermi Contact Couplings
        Atom                 a.u.       MegaHertz       Gauss      10(-4) cm-1
     1  C(13)              0.04426      49.76191      17.75629      16.59879
     2  H(1)               0.00328      14.67557       5.23661       4.89524
     3  C(13)              0.00387       4.34835       1.55160       1.45046
     4  C(13)             -0.00564      -6.33660      -2.26106      -2.11366
     5  H(1)               0.01245      55.63129      19.85063      18.55660
     6  H(1)               0.00083       3.70771       1.32300       1.23676
     7  C(13)              0.40616     456.59590     162.92477     152.30400
     8  C(13)              0.02834      31.86008      11.36847      10.62738
     9  H(1)               0.00528      23.62178       8.42884       7.87938
    10  C(13)             -0.01247     -14.01704      -5.00163      -4.67558
    11  Cl(35)             0.02382      10.44566       3.72727       3.48430
 --------------------------------------------------------
       Center         ----  Spin Dipole Couplings  ----
                      3XX-RR        3YY-RR        3ZZ-RR
 --------------------------------------------------------
     1   Atom        0.021682     -0.006431     -0.015251
     2   Atom       -0.003968      0.009790     -0.005823
     3   Atom       -0.006967      0.107961     -0.100995
     4   Atom        0.025499      0.020075     -0.045574
     5   Atom       -0.004950      0.017447     -0.012497
     6   Atom        0.001837      0.001287     -0.003124
     7   Atom        0.522278     -0.066547     -0.455731
     8   Atom        0.029906     -0.021406     -0.008500
     9   Atom        0.007666     -0.002524     -0.005142
    10   Atom        0.114863     -0.002900     -0.111963
    11   Atom       -0.037836      0.165520     -0.127684
 --------------------------------------------------------
                        XY            XZ            YZ
 --------------------------------------------------------
     1   Atom        0.053454     -0.000000     -0.000000
     2   Atom        0.001171     -0.000000      0.000000
     3   Atom        0.022437      0.000000      0.000000
     4   Atom        0.006168      0.000000     -0.000000
     5   Atom       -0.013665     -0.000000      0.000000
     6   Atom        0.000918     -0.000000     -0.000000
     7   Atom        0.752867     -0.000000     -0.000000
     8   Atom        0.033925      0.000000      0.000000
     9   Atom       -0.003679     -0.000000      0.000000
    10   Atom       -0.074121      0.000000      0.000000
    11   Atom       -0.108416      0.000000     -0.000000
 --------------------------------------------------------


 ---------------------------------------------------------------------------------
              Anisotropic Spin Dipole Couplings in Principal Axis System
 ---------------------------------------------------------------------------------

       Atom             a.u.   MegaHertz   Gauss  10(-4) cm-1        Axes

              Baa    -0.0476    -6.394    -2.281    -2.133 -0.6106  0.7919 -0.0000
     1 C(13)  Bbb    -0.0153    -2.047    -0.730    -0.683  0.0000  0.0000  1.0000
              Bcc     0.0629     8.440     3.012     2.815  0.7919  0.6106 -0.0000
 
              Baa    -0.0058    -3.107    -1.109    -1.036  0.0000  0.0000  1.0000
     2 H(1)   Bbb    -0.0041    -2.170    -0.774    -0.724  0.9964 -0.0842  0.0000
              Bcc     0.0099     5.276     1.883     1.760  0.0842  0.9964 -0.0000
 
              Baa    -0.1010   -13.553    -4.836    -4.521  0.0000  0.0000  1.0000
     3 C(13)  Bbb    -0.0112    -1.502    -0.536    -0.501  0.9827 -0.1850  0.0000
              Bcc     0.1122    15.054     5.372     5.022  0.1850  0.9827 -0.0000
 
              Baa    -0.0456    -6.116    -2.182    -2.040  0.0000  0.0000  1.0000
     4 C(13)  Bbb     0.0160     2.154     0.768     0.718 -0.5466  0.8374 -0.0000
              Bcc     0.0295     3.962     1.414     1.322  0.8374  0.5466 -0.0000
 
              Baa    -0.0125    -6.668    -2.379    -2.224  0.0000  0.0000  1.0000
     5 H(1)   Bbb    -0.0114    -6.093    -2.174    -2.032  0.9038  0.4279  0.0000
              Bcc     0.0239    12.761     4.553     4.257 -0.4279  0.9038 -0.0000
 
              Baa    -0.0031    -1.667    -0.595    -0.556  0.0000  0.0000  1.0000
     6 H(1)   Bbb     0.0006     0.322     0.115     0.108 -0.5971  0.8022  0.0000
              Bcc     0.0025     1.345     0.480     0.448  0.8022  0.5971 -0.0000
 
              Baa    -0.5805   -77.900   -27.797   -25.985 -0.5638  0.8259  0.0000
     7 C(13)  Bbb    -0.4557   -61.155   -21.822   -20.399  0.0000  0.0000  1.0000
              Bcc     1.0363   139.055    49.618    46.384  0.8259  0.5638 -0.0000
 
              Baa    -0.0383    -5.137    -1.833    -1.714 -0.4454  0.8953 -0.0000
     8 C(13)  Bbb    -0.0085    -1.141    -0.407    -0.380  0.0000  0.0000  1.0000
              Bcc     0.0468     6.278     2.240     2.094  0.8953  0.4454 -0.0000
 
              Baa    -0.0051    -2.743    -0.979    -0.915  0.0000  0.0000  1.0000
     9 H(1)   Bbb    -0.0037    -1.982    -0.707    -0.661  0.3077  0.9515 -0.0000
              Bcc     0.0089     4.725     1.686     1.576  0.9515 -0.3077  0.0000
 
              Baa    -0.1120   -15.024    -5.361    -5.012  0.0000  0.0000  1.0000
    10 C(13)  Bbb    -0.0387    -5.191    -1.852    -1.731  0.4347  0.9006 -0.0000
              Bcc     0.1506    20.215     7.213     6.743  0.9006 -0.4347 -0.0000
 
              Baa    -0.1277    -6.683    -2.385    -2.229  0.0000  0.0000  1.0000
    11 Cl(35) Bbb    -0.0848    -4.438    -1.584    -1.480  0.9176  0.3974  0.0000
              Bcc     0.2125    11.121     3.968     3.709 -0.3974  0.9176 -0.0000
 

 ---------------------------------------------------------------------------------

 Calling FoFJK, ICntrl=      2127 FMM=F ISym2X=1 I1Cent= 0 IOpClX= 1 NMat=1 NMatS=1 NMatT=0.
 ***** Axes restored to original set *****
 -------------------------------------------------------------------
 Center     Atomic                   Forces (Hartrees/Bohr)
 Number     Number              X              Y              Z
 -------------------------------------------------------------------
      1        6           0.000253824    0.001412689   -0.000000000
      2        1           0.002268985   -0.000219638   -0.000000000
      3        6           0.001436684   -0.000643014   -0.000000000
      4        6           0.000204247   -0.000056583   -0.000000000
      5        1           0.000977689   -0.001769392   -0.000000000
      6        1           0.001013455    0.001971553   -0.000000000
      7        6          -0.002045146   -0.003497892    0.000000000
      8        6          -0.000580961    0.001326941    0.000000000
      9        1          -0.001200203    0.001785025    0.000000000
     10        6          -0.001239815   -0.001945104    0.000000000
     11       17          -0.001088759    0.001635416    0.000000000
 -------------------------------------------------------------------
 Cartesian Forces:  Max     0.003497892 RMS     0.001244422

 GradGradGradGradGradGradGradGradGradGradGradGradGradGradGradGradGradGrad
 Berny optimization.
 FormGI is forming the generalized inverse of G from B-inverse, IUseBI=4.
 Internal  Forces:  Max     0.003975406 RMS     0.001424018
 Search for a local minimum.
 Step number   1 out of a maximum of   57
 All quantities printed in internal units (Hartrees-Bohrs-Radians)
 Mixed Optimization -- RFO/linear search
 Second derivative matrix not updated -- first step.
 ITU=  0
     Eigenvalues ---    0.02107   0.02131   0.02143   0.02156   0.02178
     Eigenvalues ---    0.02194   0.02242   0.02400   0.16000   0.16000
     Eigenvalues ---    0.16000   0.16000   0.22000   0.22418   0.24428
     Eigenvalues ---    0.25000   0.30592   0.35387   0.35437   0.35454
     Eigenvalues ---    0.35473   0.42015   0.43841   0.45490   0.46557
     Eigenvalues ---    0.49260   0.50325
 RFO step:  Lambda=-2.48217607D-04 EMin= 2.10682585D-02
 Linear search not attempted -- first point.
 Iteration  1 RMS(Cart)=  0.00643314 RMS(Int)=  0.00002881
 Iteration  2 RMS(Cart)=  0.00003050 RMS(Int)=  0.00000111
 Iteration  3 RMS(Cart)=  0.00000000 RMS(Int)=  0.00000111
 ClnCor:  largest displacement from symmetrization is 6.16D-10 for atom     6.
 Variable       Old X    -DE/DX   Delta X   Delta X   Delta X     New X
                                 (Linear)    (Quad)   (Total)
    R1        2.05052  -0.00227   0.00000  -0.00640  -0.00640   2.04411
    R2        2.65035  -0.00342   0.00000  -0.00757  -0.00757   2.64278
    R3        2.63335  -0.00205   0.00000  -0.00423  -0.00423   2.62911
    R4        2.04971  -0.00202   0.00000  -0.00570  -0.00570   2.04401
    R5        2.59504  -0.00398   0.00000  -0.00806  -0.00805   2.58698
    R6        2.04944  -0.00222   0.00000  -0.00624  -0.00624   2.04320
    R7        2.63249  -0.00215   0.00000  -0.00442  -0.00442   2.62806
    R8        2.58918  -0.00348   0.00000  -0.00699  -0.00698   2.58220
    R9        2.04914  -0.00215   0.00000  -0.00605  -0.00605   2.04309
   R10        2.64404  -0.00296   0.00000  -0.00646  -0.00646   2.63758
   R11        3.30499  -0.00108   0.00000  -0.00352  -0.00352   3.30147
    A1        2.08604   0.00039   0.00000   0.00198   0.00198   2.08803
    A2        2.10293  -0.00009   0.00000  -0.00104  -0.00103   2.10190
    A3        2.09421  -0.00030   0.00000  -0.00095  -0.00095   2.09326
    A4        2.11420   0.00013   0.00000   0.00072   0.00072   2.11492
    A5        2.04012  -0.00033   0.00000  -0.00181  -0.00181   2.03831
    A6        2.12887   0.00019   0.00000   0.00109   0.00109   2.12996
    A7        2.09174  -0.00011   0.00000  -0.00104  -0.00104   2.09070
    A8        2.11216   0.00005   0.00000   0.00106   0.00106   2.11322
    A9        2.07929   0.00005   0.00000  -0.00002  -0.00002   2.07927
   A10        2.18150   0.00148   0.00000   0.00511   0.00511   2.18661
   A11        2.11507   0.00000   0.00000  -0.00043  -0.00043   2.11464
   A12        2.08236  -0.00022   0.00000  -0.00050  -0.00050   2.08186
   A13        2.08575   0.00022   0.00000   0.00093   0.00094   2.08669
   A14        2.05603  -0.00068   0.00000  -0.00291  -0.00291   2.05312
   A15        2.13557  -0.00238   0.00000  -0.00940  -0.00940   2.12617
   A16        2.09159   0.00306   0.00000   0.01231   0.01231   2.10389
    D1        0.00000  -0.00000   0.00000  -0.00000   0.00000   0.00000
    D2        3.14159  -0.00000   0.00000   0.00000   0.00000   3.14159
    D3        3.14159  -0.00000   0.00000  -0.00000   0.00000   3.14159
    D4       -0.00000  -0.00000   0.00000   0.00000   0.00000   0.00000
    D5       -0.00000  -0.00000   0.00000  -0.00000   0.00000   0.00000
    D6        3.14159  -0.00000   0.00000  -0.00000   0.00000   3.14159
    D7        3.14159  -0.00000   0.00000  -0.00000   0.00000   3.14159
    D8        0.00000  -0.00000   0.00000  -0.00000   0.00000   0.00000
    D9        0.00000   0.00000   0.00000   0.00000   0.00000   0.00000
   D10        3.14159   0.00000   0.00000   0.00000   0.00000   3.14159
   D11        3.14159  -0.00000   0.00000  -0.00000   0.00000   3.14159
   D12       -0.00000  -0.00000   0.00000   0.00000   0.00000   0.00000
   D13        0.00000  -0.00000   0.00000  -0.00000   0.00000   0.00000
   D14        3.14159   0.00000   0.00000   0.00000   0.00000   3.14159
   D15        0.00000  -0.00000   0.00000  -0.00000  -0.00000   0.00000
   D16        3.14159   0.00000   0.00000  -0.00000   0.00000   3.14159
   D17        0.00000   0.00000   0.00000   0.00000   0.00000   0.00000
   D18        3.14159  -0.00000   0.00000  -0.00000   0.00000   3.14159
   D19        3.14159   0.00000   0.00000   0.00000   0.00000   3.14159
   D20        0.00000   0.00000   0.00000   0.00000  -0.00000   0.00000
         Item               Value     Threshold  Converged?
 Maximum Force            0.003975     0.000450     NO 
 RMS     Force            0.001424     0.000300     NO 
 Maximum Displacement     0.026784     0.001800     NO 
 RMS     Displacement     0.006437     0.001200     NO 
 Predicted change in Energy=-1.241988D-04
 GradGradGradGradGradGradGradGradGradGradGradGradGradGradGradGradGradGrad

                          Input orientation:                          
 ---------------------------------------------------------------------
 Center     Atomic      Atomic             Coordinates (Angstroms)
 Number     Number       Type             X           Y           Z
 ---------------------------------------------------------------------
      1          6           0       -2.350412    0.007584    0.000000
      2          1           0       -3.432083   -0.000068    0.000000
      3          6           0       -1.667506    1.228008    0.000000
      4          6           0       -1.637289   -1.187021    0.000000
      5          1           0       -2.201685    2.168545    0.000000
      6          1           0       -2.167671   -2.129208    0.000000
      7          6           0       -0.299779    1.169645    0.000000
      8          6           0       -0.246590   -1.192922    0.000000
      9          1           0        0.308899   -2.120463   -0.000000
     10          6           0        0.441234    0.021577   -0.000000
     11         17           0        2.188019    0.052659   -0.000000
 ---------------------------------------------------------------------
                    Distance matrix (angstroms):
                    1          2          3          4          5
     1  C    0.000000
     2  H    1.081698   0.000000
     3  C    1.398498   2.149861   0.000000
     4  C    1.391267   2.151777   2.415218   0.000000
     5  H    2.166073   2.493343   1.081645   3.402699   0.000000
     6  H    2.144591   2.476282   3.394269   1.081213   4.297887
     7  C    2.357007   3.343584   1.368972   2.709761   2.148266
     8  C    2.422247   3.401509   2.807117   1.390711   3.888682
     9  H    3.405954   4.300119   3.888244   2.158463   4.969771
    10  C    2.791681   3.873378   2.429457   2.404364   3.405068
    11  Cl   4.538655   5.620349   4.030697   4.021167   4.873034
                    6          7          8          9         10
     6  H    0.000000
     7  C    3.790969   0.000000
     8  C    2.137097   2.363165   0.000000
     9  H    2.476586   3.345938   1.081158   0.000000
    10  C    3.381163   1.366440   1.395748   2.146125   0.000000
    11  Cl   4.871609   2.727048   2.734738   2.872900   1.747061
                   11
    11  Cl   0.000000
 Stoichiometry    C6H4Cl(2)
 Framework group  CS[SG(C6H4Cl)]
 Deg. of freedom    19
 Full point group                 CS      NOp   2
 Largest Abelian subgroup         CS      NOp   2
 Largest concise Abelian subgroup C1      NOp   1
                         Standard orientation:                         
 ---------------------------------------------------------------------
 Center     Atomic      Atomic             Coordinates (Angstroms)
 Number     Number       Type             X           Y           Z
 ---------------------------------------------------------------------
      1          6           0        0.184126   -2.257805   -0.000000
      2          1           0        0.253244   -3.337293   -0.000000
      3          6           0        1.353017   -1.490024   -0.000000
      4          6           0       -1.058068   -1.631244   -0.000000
      5          1           0        2.329087   -1.956119   -0.000000
      6          1           0       -1.960246   -2.227143   -0.000000
      7          6           0        1.197753   -0.129886   -0.000000
      8          6           0       -1.162633   -0.244469   -0.000000
      9          1           0       -2.127252    0.243805    0.000000
     10          6           0        0.000000    0.527797    0.000000
     11         17           0       -0.092941    2.272385    0.000000
 ---------------------------------------------------------------------
 Rotational constants (GHZ):           6.1306801           1.5551183           1.2404610
 Basis read from rwf:  (5D, 7F)
 There are   215 symmetry adapted cartesian basis functions of A'  symmetry.
 There are    94 symmetry adapted cartesian basis functions of A"  symmetry.
 There are   183 symmetry adapted basis functions of A'  symmetry.
 There are    87 symmetry adapted basis functions of A"  symmetry.
   270 basis functions,   448 primitive gaussians,   309 cartesian basis functions
    29 alpha electrons       28 beta electrons
       nuclear repulsion energy       303.7214662139 Hartrees.
 NAtoms=   11 NActive=   11 NUniq=   11 SFac= 1.00D+00 NAtFMM=   60 NAOKFM=F Big=F
 Integral buffers will be    131072 words long.
 Raffenetti 2 integral format.
 Two-electron integral symmetry is turned on.
 One-electron integrals computed using PRISM.
 NBasis=   270 RedAO= T EigKep=  3.48D-05  NBF=   183    87
 NBsUse=   270 1.00D-06 EigRej= -1.00D+00 NBFU=   183    87
 Initial guess from the checkpoint file:  "/wrk/irikura/Gau-8088.chk"
 B after Tr=    -0.000000    0.000000    0.000000
         Rot=    0.999968    0.000000   -0.000000    0.008020 Ang=   0.92 deg.
 Initial guess orbital symmetries:
 Alpha Orbitals:
       Occupied  (A') (A') (A') (A') (A') (A') (A') (A') (A') (A")
                 (A') (A') (A') (A') (A') (A') (A') (A') (A') (A')
                 (A') (A') (A") (A') (A") (A') (A") (A') (A")
       Virtual   (A") (A") (A') (A') (A') (A') (A') (A') (A") (A')
                 (A') (A") (A') (A") (A') (A") (A') (A') (A') (A")
                 (A') (A') (A") (A') (A') (A') (A') (A') (A') (A")
                 (A") (A') (A') (A') (A') (A') (A') (A') (A') (A")
                 (A') (A") (A') (A') (A') (A') (A") (A') (A') (A')
                 (A') (A") (A") (A") (A') (A') (A") (A") (A') (A')
                 (A') (A') (A') (A') (A') (A") (A') (A") (A') (A')
                 (A") (A") (A') (A") (A") (A') (A") (A') (A') (A")
                 (A') (A') (A") (A') (A") (A') (A") (A") (A') (A')
                 (A") (A") (A') (A') (A') (A') (A') (A') (A') (A')
                 (A") (A') (A') (A') (A") (A') (A') (A') (A") (A')
                 (A') (A') (A') (A") (A") (A') (A') (A') (A') (A")
                 (A') (A') (A') (A') (A') (A') (A') (A") (A") (A')
                 (A") (A') (A") (A") (A") (A") (A') (A") (A') (A")
                 (A') (A') (A') (A') (A") (A') (A') (A') (A") (A')
                 (A') (A") (A') (A') (A") (A') (A') (A') (A") (A")
                 (A") (A') (A') (A") (A') (A") (A') (A') (A") (A')
                 (A') (A") (A') (A") (A') (A') (A") (A") (A') (A')
                 (A") (A") (A") (A') (A") (A') (A") (A") (A') (A")
                 (A') (A") (A") (A') (A") (A") (A') (A") (A') (A")
                 (A') (A") (A") (A') (A') (A') (A') (A') (A") (A')
                 (A') (A') (A') (A') (A") (A') (A') (A") (A") (A')
                 (A') (A') (A") (A') (A') (A') (A') (A") (A') (A')
                 (A') (A') (A') (A') (A') (A') (A') (A') (A') (A')
                 (A')
 Beta  Orbitals:
       Occupied  (A') (A') (A') (A') (A') (A') (A') (A') (A') (A")
                 (A') (A') (A') (A') (A') (A') (A') (A') (A') (A')
                 (A') (A") (A') (A') (A") (A') (A") (A")
       Virtual   (A') (A") (A") (A') (A') (A') (A') (A') (A') (A")
                 (A') (A') (A") (A') (A") (A') (A") (A') (A') (A')
                 (A") (A') (A") (A') (A') (A') (A') (A') (A') (A')
                 (A") (A") (A') (A') (A') (A') (A') (A') (A') (A")
                 (A') (A') (A") (A') (A') (A') (A') (A") (A') (A')
                 (A') (A") (A') (A") (A") (A') (A') (A") (A") (A')
                 (A') (A') (A') (A') (A') (A') (A") (A') (A") (A')
                 (A') (A") (A") (A') (A") (A") (A') (A") (A') (A')
                 (A") (A') (A') (A") (A') (A") (A') (A") (A") (A')
                 (A') (A") (A") (A') (A') (A') (A') (A') (A') (A')
                 (A') (A") (A') (A') (A') (A") (A') (A') (A') (A")
                 (A') (A') (A') (A') (A") (A") (A') (A') (A') (A')
                 (A") (A') (A') (A') (A') (A') (A') (A') (A") (A")
                 (A') (A") (A') (A") (A") (A") (A") (A') (A") (A')
                 (A") (A') (A') (A') (A') (A") (A') (A') (A') (A")
                 (A') (A') (A") (A') (A') (A") (A') (A') (A') (A")
                 (A") (A') (A") (A') (A") (A") (A') (A') (A') (A")
                 (A') (A') (A") (A') (A') (A") (A') (A") (A") (A')
                 (A') (A") (A") (A") (A') (A") (A") (A") (A') (A')
                 (A") (A') (A") (A") (A') (A") (A") (A') (A") (A')
                 (A") (A') (A") (A") (A') (A') (A') (A') (A') (A")
                 (A') (A') (A') (A') (A') (A") (A') (A') (A") (A")
                 (A') (A') (A') (A") (A') (A') (A') (A') (A") (A')
                 (A') (A') (A') (A') (A') (A') (A') (A') (A') (A')
                 (A') (A')
 Initial guess <Sx>= 0.0000 <Sy>= 0.0000 <Sz>= 0.5000 <S**2>= 0.7574 S= 0.5037
 ExpMin= 7.42D-02 ExpMax= 1.54D+05 ExpMxC= 1.49D+03 IAcc=3 IRadAn=         5 AccDes= 0.00D+00
 Harris functional with IExCor=  402 and IRadAn=       5 diagonalized for initial guess.
 HarFok:  IExCor=  402 AccDes= 0.00D+00 IRadAn=         5 IDoV= 1 UseB2=F ITyADJ=14
 ICtDFT=  3500011 ScaDFX=  1.000000  1.000000  1.000000  1.000000
 FoFCou: FMM=F IPFlag=           0 FMFlag=      100000 FMFlg1=           0
         NFxFlg=           0 DoJE=T BraDBF=F KetDBF=T FulRan=T
         wScrn=  0.000000 ICntrl=       500 IOpCl=  0 I1Cent=   200000004 NGrid=           0
         NMat0=    1 NMatS0=      1 NMatT0=    0 NMatD0=    1 NMtDS0=    0 NMtDT0=    0
 Petite list used in FoFCou.
 Keep R1 and R2 ints in memory in symmetry-blocked form, NReq=1020852588.
 Requested convergence on RMS density matrix=1.00D-08 within 128 cycles.
 Requested convergence on MAX density matrix=1.00D-06.
 Requested convergence on             energy=1.00D-06.
 No special actions if energy rises.
 Integral accuracy reduced to 1.0D-05 until final iterations.
 Initial convergence to 1.0D-05 achieved.  Increase integral accuracy.
 SCF Done:  E(UB3LYP) =  -691.282724097     A.U. after   13 cycles
            NFock= 13  Conv=0.71D-08     -V/T= 2.0018
 <Sx>= 0.0000 <Sy>= 0.0000 <Sz>= 0.5000 <S**2>= 0.7573 S= 0.5037
 <L.S>=  0.00000000000    
 Annihilation of the first spin contaminant:
 S**2 before annihilation     0.7573,   after     0.7500
 Calling FoFJK, ICntrl=      2127 FMM=F ISym2X=1 I1Cent= 0 IOpClX= 1 NMat=1 NMatS=1 NMatT=0.
 ***** Axes restored to original set *****
 -------------------------------------------------------------------
 Center     Atomic                   Forces (Hartrees/Bohr)
 Number     Number              X              Y              Z
 -------------------------------------------------------------------
      1        6          -0.000298719    0.000090504    0.000000000
      2        1          -0.000066939   -0.000165401    0.000000000
      3        6           0.000408729    0.000598830   -0.000000000
      4        6          -0.000126594   -0.000244969    0.000000000
      5        1          -0.000074765    0.000081302    0.000000000
      6        1          -0.000018667   -0.000052281    0.000000000
      7        6          -0.000222302   -0.000011697    0.000000000
      8        6           0.000122865    0.000301908   -0.000000000
      9        1          -0.000058729   -0.000193348    0.000000000
     10        6           0.000473307   -0.000897136   -0.000000000
     11       17          -0.000138186    0.000492288    0.000000000
 -------------------------------------------------------------------
 Cartesian Forces:  Max     0.000897136 RMS     0.000260139

 GradGradGradGradGradGradGradGradGradGradGradGradGradGradGradGradGradGrad
 Berny optimization.
 Using GEDIIS/GDIIS optimizer.
 FormGI is forming the generalized inverse of G from B-inverse, IUseBI=4.
 Internal  Forces:  Max     0.000879200 RMS     0.000220603
 Search for a local minimum.
 Step number   2 out of a maximum of   57
 All quantities printed in internal units (Hartrees-Bohrs-Radians)
 Mixed Optimization -- En-DIIS/RFO-DIIS
 Update second derivatives using D2CorX and points    1    2
 DE= -1.31D-04 DEPred=-1.24D-04 R= 1.05D+00
 TightC=F SS=  1.41D+00  RLast= 2.65D-02 DXNew= 5.0454D-01 7.9391D-02
 Trust test= 1.05D+00 RLast= 2.65D-02 DXMaxT set to 3.00D-01
 ITU=  1  0
 Use linear search instead of GDIIS.
     Eigenvalues ---    0.02107   0.02131   0.02143   0.02156   0.02178
     Eigenvalues ---    0.02194   0.02240   0.02401   0.15817   0.16000
     Eigenvalues ---    0.16000   0.16004   0.20929   0.22010   0.22645
     Eigenvalues ---    0.24509   0.30548   0.35399   0.35443   0.35458
     Eigenvalues ---    0.36287   0.42091   0.43722   0.46545   0.46551
     Eigenvalues ---    0.49850   0.53756
 RFO step:  Lambda=-8.58951283D-06 EMin= 2.10675590D-02
 Quartic linear search produced a step of  0.05477.
 Iteration  1 RMS(Cart)=  0.00177874 RMS(Int)=  0.00000341
 Iteration  2 RMS(Cart)=  0.00000345 RMS(Int)=  0.00000013
 Iteration  3 RMS(Cart)=  0.00000000 RMS(Int)=  0.00000013
 ClnCor:  largest displacement from symmetrization is 3.28D-15 for atom     6.
 Variable       Old X    -DE/DX   Delta X   Delta X   Delta X     New X
                                 (Linear)    (Quad)   (Total)
[...]
 Search for a local minimum.
 Step number   1 out of a maximum of    2
 All quantities printed in internal units (Hartrees-Bohrs-Radians)
 Second derivative matrix not updated -- analytic derivatives used.
 ITU=  0
     Eigenvalues ---    0.01713   0.01755   0.01825   0.02363   0.02534
     Eigenvalues ---    0.02822   0.03285   0.03812   0.10545   0.10965
     Eigenvalues ---    0.11759   0.12166   0.15114   0.17014   0.18335
     Eigenvalues ---    0.19433   0.24713   0.27522   0.35442   0.35681
     Eigenvalues ---    0.35911   0.36020   0.40796   0.41102   0.45159
     Eigenvalues ---    0.47255   0.51147
 Angle between quadratic step and forces=  23.40 degrees.
 Linear search not attempted -- first point.
 Iteration  1 RMS(Cart)=  0.00005403 RMS(Int)=  0.00000000
 Iteration  2 RMS(Cart)=  0.00000000 RMS(Int)=  0.00000000
 ClnCor:  largest displacement from symmetrization is 1.76D-15 for atom     6.
 Variable       Old X    -DE/DX   Delta X   Delta X   Delta X     New X
                                 (Linear)    (Quad)   (Total)
    R1        2.04428   0.00001   0.00000   0.00001   0.00001   2.04430
    R2        2.64403   0.00004   0.00000   0.00018   0.00018   2.64421
    R3        2.62978  -0.00005   0.00000  -0.00020  -0.00020   2.62957
    R4        2.04424   0.00000   0.00000   0.00001   0.00001   2.04425
    R5        2.58627  -0.00002   0.00000  -0.00012  -0.00012   2.58616
    R6        2.04330   0.00001   0.00000   0.00002   0.00002   2.04333
    R7        2.62899   0.00005   0.00000   0.00020   0.00020   2.62919
    R8        2.58302   0.00007   0.00000   0.00023   0.00023   2.58325
    R9        2.04352   0.00000   0.00000  -0.00000  -0.00000   2.04352
   R10        2.63707  -0.00005   0.00000  -0.00022  -0.00022   2.63685
   R11        3.30060  -0.00000   0.00000  -0.00000  -0.00000   3.30060
    A1        2.08974  -0.00001   0.00000  -0.00010  -0.00010   2.08964
    A2        2.10034   0.00000   0.00000   0.00009   0.00009   2.10043
    A3        2.09311   0.00000   0.00000   0.00001   0.00001   2.09312
    A4        2.11534  -0.00001   0.00000  -0.00010  -0.00010   2.11524
    A5        2.03680   0.00000   0.00000   0.00003   0.00003   2.03683
    A6        2.13104   0.00000   0.00000   0.00007   0.00007   2.13111
    A7        2.09041   0.00000   0.00000   0.00008   0.00008   2.09049
    A8        2.11395   0.00000   0.00000  -0.00001  -0.00001   2.11395
    A9        2.07882  -0.00000   0.00000  -0.00007  -0.00007   2.07875
   A10        2.18878  -0.00002   0.00000  -0.00010  -0.00010   2.18868
   A11        2.11327  -0.00001   0.00000  -0.00014  -0.00014   2.11312
   A12        2.08139   0.00000   0.00000  -0.00000  -0.00000   2.08139
   A13        2.08853   0.00001   0.00000   0.00015   0.00015   2.08868
   A14        2.05234   0.00001   0.00000   0.00006   0.00006   2.05240
   A15        2.12155  -0.00000   0.00000  -0.00007  -0.00007   2.12148
   A16        2.10930  -0.00001   0.00000   0.00000   0.00000   2.10930
    D1       -0.00000   0.00000   0.00000   0.00000   0.00000   0.00000
    D2        3.14159   0.00000   0.00000   0.00000   0.00000   3.14159
    D3        3.14159   0.00000   0.00000  -0.00000   0.00000   3.14159
    D4        0.00000   0.00000   0.00000  -0.00000   0.00000   0.00000
    D5        0.00000   0.00000   0.00000  -0.00000  -0.00000   0.00000
    D6        3.14159  -0.00000   0.00000  -0.00000   0.00000   3.14159
    D7        3.14159  -0.00000   0.00000  -0.00000   0.00000   3.14159
    D8       -0.00000   0.00000   0.00000   0.00000   0.00000   0.00000
    D9       -0.00000  -0.00000   0.00000   0.00000   0.00000   0.00000
   D10        3.14159  -0.00000   0.00000   0.00000   0.00000   3.14159
   D11        3.14159   0.00000   0.00000   0.00000   0.00000   3.14159
   D12        0.00000  -0.00000   0.00000  -0.00000  -0.00000   0.00000
   D13       -0.00000  -0.00000   0.00000   0.00000   0.00000   0.00000
   D14        3.14159  -0.00000   0.00000   0.00000   0.00000   3.14159
   D15       -0.00000   0.00000   0.00000  -0.00000   0.00000   0.00000
   D16        3.14159  -0.00000   0.00000  -0.00000   0.00000   3.14159
   D17       -0.00000   0.00000   0.00000   0.00000   0.00000   0.00000
   D18        3.14159   0.00000   0.00000   0.00000   0.00000   3.14159
   D19        3.14159  -0.00000   0.00000  -0.00000   0.00000   3.14159
   D20        0.00000  -0.00000   0.00000  -0.00000   0.00000   0.00000
         Item               Value     Threshold  Converged?
 Maximum Force            0.000069     0.000450     YES
 RMS     Force            0.000018     0.000300     YES
 Maximum Displacement     0.000172     0.001800     YES
 RMS     Displacement     0.000054     0.001200     YES
 Predicted change in Energy=-3.317954D-08
 Optimization completed.
    -- Stationary point found.
                           ----------------------------
                           !   Optimized Parameters   !
                           ! (Angstroms and Degrees)  !
 --------------------------                            --------------------------
 ! Name  Definition              Value          Derivative Info.                !
 --------------------------------------------------------------------------------
 ! R1    R(1,2)                  1.0818         -DE/DX =    0.0                 !
 ! R2    R(1,3)                  1.3992         -DE/DX =    0.0                 !
 ! R3    R(1,4)                  1.3916         -DE/DX =   -0.0001              !
 ! R4    R(3,5)                  1.0818         -DE/DX =    0.0                 !
 ! R5    R(3,7)                  1.3686         -DE/DX =    0.0                 !
 ! R6    R(4,6)                  1.0813         -DE/DX =    0.0                 !
 ! R7    R(4,8)                  1.3912         -DE/DX =    0.0                 !
 ! R8    R(7,10)                 1.3669         -DE/DX =    0.0001              !
 ! R9    R(8,9)                  1.0814         -DE/DX =    0.0                 !
 ! R10   R(8,10)                 1.3955         -DE/DX =    0.0                 !
 ! R11   R(10,11)                1.7466         -DE/DX =    0.0                 !
 ! A1    A(2,1,3)              119.7331         -DE/DX =    0.0                 !
 ! A2    A(2,1,4)              120.3404         -DE/DX =    0.0                 !
 ! A3    A(3,1,4)              119.9265         -DE/DX =    0.0                 !
 ! A4    A(1,3,5)              121.2001         -DE/DX =    0.0                 !
 ! A5    A(1,3,7)              116.7002         -DE/DX =    0.0                 !
 ! A6    A(5,3,7)              122.0997         -DE/DX =    0.0                 !
 ! A7    A(1,4,6)              119.7719         -DE/DX =    0.0                 !
 ! A8    A(1,4,8)              121.1206         -DE/DX =    0.0                 !
 ! A9    A(6,4,8)              119.1075         -DE/DX =    0.0                 !
 ! A10   A(3,7,10)             125.4076         -DE/DX =    0.0                 !
 ! A11   A(4,8,9)              121.0812         -DE/DX =    0.0                 !
 ! A12   A(4,8,10)             119.2548         -DE/DX =    0.0                 !
 ! A13   A(9,8,10)             119.664          -DE/DX =    0.0                 !
 ! A14   A(7,10,8)             117.5903         -DE/DX =    0.0                 !
 ! A15   A(7,10,11)            121.5559         -DE/DX =    0.0                 !
 ! A16   A(8,10,11)            120.8538         -DE/DX =    0.0                 !
 ! D1    D(2,1,3,5)              0.0            -DE/DX =    0.0                 !
 ! D2    D(2,1,3,7)            180.0            -DE/DX =    0.0                 !
 ! D3    D(4,1,3,5)            180.0            -DE/DX =    0.0                 !
 ! D4    D(4,1,3,7)              0.0            -DE/DX =    0.0                 !
 ! D5    D(2,1,4,6)              0.0            -DE/DX =    0.0                 !
 ! D6    D(2,1,4,8)            180.0            -DE/DX =    0.0                 !
 ! D7    D(3,1,4,6)            180.0            -DE/DX =    0.0                 !
 ! D8    D(3,1,4,8)              0.0            -DE/DX =    0.0                 !
 ! D9    D(1,3,7,10)             0.0            -DE/DX =    0.0                 !
 ! D10   D(5,3,7,10)           180.0            -DE/DX =    0.0                 !
 ! D11   D(1,4,8,9)            180.0            -DE/DX =    0.0                 !
 ! D12   D(1,4,8,10)             0.0            -DE/DX =    0.0                 !
 ! D13   D(6,4,8,9)              0.0            -DE/DX =    0.0                 !
 ! D14   D(6,4,8,10)           180.0            -DE/DX =    0.0                 !
 ! D15   D(3,7,10,8)             0.0            -DE/DX =    0.0                 !
 ! D16   D(3,7,10,11)          180.0            -DE/DX =    0.0                 !
 ! D17   D(4,8,10,7)             0.0            -DE/DX =    0.0                 !
 ! D18   D(4,8,10,11)          180.0            -DE/DX =    0.0                 !
 ! D19   D(9,8,10,7)           180.0            -DE/DX =    0.0                 !
 ! D20   D(9,8,10,11)            0.0            -DE/DX =    0.0                 !
 --------------------------------------------------------------------------------
 GradGradGradGradGradGradGradGradGradGradGradGradGradGradGradGradGradGrad


 ----------------------------------------------------------------------

 Electric dipole moment (input orientation):
 (Debye = 10**-18 statcoulomb cm , SI units = C m)
                  (au)            (Debye)         (10**-30 SI)
   Tot        0.882725D+00      0.224366D+01      0.748405D+01
   x         -0.833448D+00     -0.211841D+01     -0.706627D+01
   y         -0.290804D+00     -0.739150D+00     -0.246554D+01
   z          0.000000D+00      0.000000D+00      0.000000D+00

 Dipole polarizability, Alpha (input orientation).
 (esu units = cm**3 , SI units = C**2 m**2 J**-1)
 Alpha(0;0):
               (au)            (10**-24 esu)      (10**-40 SI)
   iso        0.769707D+02      0.114059D+02      0.126907D+02
   aniso      0.544881D+02      0.807430D+01      0.898387D+01
   xx         0.106841D+03      0.158323D+02      0.176158D+02
   yx        -0.156044D+01     -0.231234D+00     -0.257282D+00
   yy         0.798682D+02      0.118353D+02      0.131685D+02
   zx         0.000000D+00      0.000000D+00      0.000000D+00
   zy         0.000000D+00      0.000000D+00      0.000000D+00
   zz         0.442023D+02      0.655010D+01      0.728797D+01

 ----------------------------------------------------------------------

 Dipole orientation:
     6         -0.48682231          1.39523914          4.18890607
     1         -0.70337031          2.01586855          6.12462839
     6         -1.06411776          3.04977548          2.20897247
     6          0.36188204         -1.03715867          3.66082502
     1         -1.72669608          4.94873365          2.57485941
     1          0.80665396         -2.31188084          5.19456353
     6         -0.74785569          2.14336423         -0.19252740
     6          0.65150752         -1.86722912          1.18318342
     1          1.31110228         -3.75763637          0.77420353
     6          0.07916827         -0.22689729         -0.80071718
    17          0.41404671         -1.18666331         -3.94088860

 Electric dipole moment (dipole orientation):
 (Debye = 10**-18 statcoulomb cm , SI units = C m)
                  (au)            (Debye)         (10**-30 SI)
   Tot        0.882725D+00      0.224366D+01      0.748405D+01
   x          0.000000D+00      0.000000D+00      0.000000D+00
   y          0.000000D+00      0.000000D+00      0.000000D+00
   z          0.882725D+00      0.224366D+01      0.748405D+01

 Dipole polarizability, Alpha (dipole orientation).
 (esu units = cm**3 , SI units = C**2 m**2 J**-1)
 Alpha(0;0):
               (au)            (10**-24 esu)      (10**-40 SI)
   iso        0.769707D+02      0.114059D+02      0.126907D+02
   aniso      0.544881D+02      0.807430D+01      0.898387D+01
   xx         0.484962D+02      0.718639D+01      0.799594D+01
   yx        -0.123064D+02     -0.182362D+01     -0.202905D+01
   yy         0.794725D+02      0.117766D+02      0.131032D+02
   zx        -0.316648D+01     -0.469224D+00     -0.522082D+00
   zy         0.907517D+01      0.134480D+01      0.149629D+01
   zz         0.102943D+03      0.152546D+02      0.169731D+02

 ----------------------------------------------------------------------
 1\1\GINC-GAMBA\Freq\UB3LYP\Gen\C6H4Cl1(2)\IRIKURA\17-Jun-2022\0\\#N Ge
 om=AllCheck Guess=TCheck SCRF=Check GenChk UB3LYP/ChkBas Freq\\2-chlor
 ophenyl, B3LYP/pcseg-2\\0,2\C,-2.3505471398,0.0080697631,0.\H,-3.43229
 76223,-0.0009650016,0.\C,-1.6667909296,1.2287778198,0.\C,-1.6375833813
 ,-1.1870384725,0.\H,-2.2002228789,2.1698775275,0.\H,-2.1685325053,-2.1
 289715889,0.\C,-0.2995544022,1.1677831262,0.\C,-0.2463991098,-1.194361
 4406,0.\H,0.3069848295,-2.1234237303,0.\C,0.4419618582,0.0195214861,0.
 \Cl,2.1881172814,0.0590665111,0.\\Version=ES64L-G16RevB.01\State=2-A'\
 HF=-691.2827303\S2=0.757335\S2-1=0.\S2A=0.750032\RMSD=3.318e-09\RMSF=3
 .811e-05\ZeroPoint=0.0778283\Thermal=0.0833201\Dipole=-0.8334481,-0.29
 0804,0.\DipoleDeriv=0.0355271,0.0035184,0.,0.0139106,0.0362678,0.,0.,0
 .,-0.1432354,-0.083083,0.0036705,0.,-0.0160437,0.0627628,0.,0.,0.,0.13
 53152,-0.0080332,-0.0472895,0.,-0.0596963,0.0174,0.,0.,0.,-0.084223,-0
 .0261727,0.0676865,0.,0.0386913,0.0486898,0.,0.,0.,-0.1353266,0.047962
 1,0.05805,0.,0.0562137,0.0036843,0.,0.,0.,0.1540866,0.0212487,-0.05940
 64,0.,-0.0624156,-0.037692,0.,0.,0.,0.1445669,-0.2135647,-0.051371,0.,
 0.0566396,-0.1139682,0.,0.,0.,-0.0557936,-0.1780645,-0.0189472,0.,-0.0
 51094,0.0242444,0.,0.,0.,-0.091231,0.0426844,0.0435121,0.,0.0517583,0.
 0007085,0.,0.,0.,0.1305767,1.1616352,0.0147308,0.,-0.0353907,0.0331167
 ,0.,0.,0.,-0.010165,-0.8001394,-0.0141542,0.,0.0074269,-0.075214,0.,0.
 ,0.,-0.0445708\Polar=106.8414953,-1.5604418,79.8682497,0.,0.,44.202258
 6\Quadrupole=1.3074754,1.7698553,-3.0773307,-0.831408,0.,0.\PG=CS [SG(
 C6H4Cl1)]\NImag=0\\0.72788455,-0.00768228,0.62862625,0.,0.,0.12787471,
 -0.33634072,-0.00149492,0.,0.35697390,-0.00252474,-0.05796195,0.,0.002
 25568,0.05771733,0.,0.,-0.03570626,0.,0.,0.02477868,-0.15740251,-0.039
 29629,0.,-0.01098838,-0.02824162,0.,0.65192334,-0.11610829,-0.26037645
 ,0.,0.00212535,0.00147519,0.,-0.07186173,0.66772334,0.,0.,-0.06049014,
 0.,0.,0.00405949,0.,0.,0.12247352,-0.17991405,0.05673735,0.,-0.0112063
 0,0.02793011,0.,0.05932599,0.02179399,0.,0.67106216,0.11820931,-0.2716
 3846,0.,-0.00274433,0.00477890,0.,-0.02560018,-0.05905493,0.,0.0356794
 8,0.71664282,0.,0.,-0.06224080,0.,0.,0.00280926,0.,0.,0.00646102,0.,0.
 ,0.13423730,0.01171343,-0.01492637,0.,0.00072084,0.00077212,0.,-0.1206
 7644,0.12273321,0.,-0.00043214,-0.00312068,0.,0.12936472,0.01576514,-0
 .01891063,0.,-0.00013066,0.00134651,0.,0.11685179,-0.26587050,0.,-0.00
 379631,-0.00292719,0.,-0.13028314,0.28227911,0.,0.,0.00594159,0.,0.,-0
 .00402226,0.,0.,-0.03471384,0.,0.,0.00643294,0.,0.,0.02250571,0.011766
 64,0.01502624,0.,0.00076701,-0.00055150,0.,-0.00027586,0.00343617,0.,-
 0.12611089,-0.11932161,0.,0.00035873,0.00075381,0.,0.13102687,-0.01538
 251,-0.01869345,0.,0.00027135,0.00098548,0.,0.00333739,-0.00327934,0.,
 -0.11936264,-0.27058484,0.,-0.00071792,-0.00090007,0.,0.12828359,0.286
 07464,0.,0.,0.00322430,0.,0.,-0.00385950,0.,0.,0.00622015,0.,0.,-0.036
 12774,0.,0.,-0.00005731,0.,0.,0.02560603,-0.04318666,-0.08306231,0.,-0
 .00075760,-0.00411435,0.,-0.34573754,0.03246972,0.,-0.05258348,0.02970
 624,0.,-0.01497918,0.00329524,0.,-0.00114671,0.00122956,0.,0.59252254,
 -0.02466704,0.03513667,0.,-0.00308284,-0.00346536,0.,0.00401983,-0.095
 55400,0.,0.02900857,-0.02117573,0.,0.02486074,0.00362947,0.,0.00099242
 ,0.00032081,0.,-0.13745296,0.41104540,0.,0.,0.01174570,0.,0.,0.0064196
 4,0.,0.,-0.04902062,0.,0.,-0.00412210,0.,0.,-0.00024896,0.,0.,-0.00069
 599,0.,0.,0.06882384,-0.03271636,0.07470423,0.,0.00028669,0.00215761,0
 .,-0.04815238,-0.03169489,0.,-0.32590824,-0.02887847,0.,-0.00097749,-0
 .00067462,0.,-0.01186654,0.00183965,0.,0.05993822,-0.02136098,0.,0.666
 73241,0.02968259,0.03191469,0.,0.00301452,-0.00390183,0.,-0.02834628,-
 0.01319972,0.,0.03567390,-0.12673723,0.,-0.00106272,0.00005809,0.,-0.0
 2867973,0.00342922,0.,0.03289610,-0.06365697,0.,-0.05237112,0.69604094
 ,0.,0.,0.00552045,0.,0.,0.00634951,0.,0.,-0.00050286,0.,0.,-0.06104358
 ,0.,0.,-0.00066702,0.,0.,0.00322315,0.,0.,0.01172939,0.,0.,0.12745033,
 -0.00495184,-0.00124471,0.,-0.00050458,0.00136600,0.,-0.00072133,-0.00
 008704,0.,-0.01023058,0.02755132,0.,0.00004153,0.00005760,0.,0.0010809
 0,-0.00033059,0.,-0.00029012,-0.00311869,0.,-0.12890183,0.12384065,0.,
 0.13475376,-0.00054994,0.00151836,0.,-0.00026899,0.00019713,0.,-0.0008
 9013,0.00102662,0.,-0.00204229,0.00475243,0.,0.00004557,-0.00006459,0.
 ,0.00037482,0.00071578,0.,-0.00260558,-0.00494018,0.,0.12257332,-0.264
 96649,0.,-0.13219178,0.28033645,0.,0.,0.00643191,0.,0.,0.00033396,0.,0
 .,-0.00121479,0.,0.,0.00350189,0.,0.,-0.00032010,0.,0.,-0.00406186,0.,
 0.,0.00527807,0.,0.,-0.03570046,0.,0.,0.02405828,0.00588882,0.00119056
 ,0.,0.00118210,0.00104370,0.,-0.02907364,0.03578835,0.,-0.02703555,-0.
 02659430,0.,-0.00449908,-0.00152695,0.,-0.00420813,0.00063853,0.,-0.15
 599105,0.11745072,0.,-0.14167688,-0.11332757,0.,0.00827404,0.01503858,
 0.,0.49971878,0.00377979,-0.07120269,0.,0.00006173,-0.00140448,0.,0.07
 008378,0.03075835,0.,-0.08313339,0.02961459,0.,0.00114297,0.00120788,0
 .,0.00054117,0.00188420,0.,0.10616083,-0.26522605,0.,-0.03810612,-0.26
 205884,0.,-0.01585994,-0.02015272,0.,-0.03090430,0.59185698,0.,0.,-0.0
 0188575,0.,0.,-0.00069050,0.,0.,0.00321496,0.,0.,0.00552600,0.,0.,0.00
 525652,0.,0.,0.00659211,0.,0.,-0.05168333,0.,0.,-0.06221603,0.,0.,0.00
 449560,0.,0.,0.11381786,-0.00274131,0.00004850,0.,-0.00013295,-0.00009
 302,0.,0.00177874,0.00140516,0.,0.00303307,-0.00488678,0.,-0.00063493,
 -0.00031191,0.,-0.00139201,0.00019359,0.,-0.03778842,0.01335024,0.,-0.
 03675760,-0.00132035,0.,0.00145005,0.00051642,0.,-0.15257942,-0.013766
 52,0.,0.22576478,-0.00052205,0.00158766,0.,-0.00000691,0.00023310,0.,-
 0.00005655,-0.00364856,0.,0.00151124,-0.00367037,0.,0.00055622,0.00015
 193,0.,-0.00085537,0.00004757,0.,0.02147751,0.00388594,0.,-0.02818861,
 0.00307812,0.,0.00001717,0.00157723,0.,0.00120266,-0.03527722,0.,0.004
 86468,0.03203460,0.,0.,-0.00041569,0.,0.,-0.00047202,0.,0.,0.00351312,
 0.,0.,0.00456582,0.,0.,-0.00010727,0.,0.,-0.00006333,0.,0.,0.00177436,
 0.,0.,0.00585713,0.,0.,-0.00280249,0.,0.,-0.02242744,0.,0.,0.01057782\
 \-0.00001040,0.00008636,0.,0.00000513,-0.00000545,0.,-0.00004905,-0.00
 002919,0.,0.00007457,-0.00005116,0.,0.00000509,0.00000090,0.,0.0000010
 8,0.00000905,0.,0.00004918,-0.00007390,0.,-0.00009293,-0.00004580,0.,0
 .00001027,0.00000664,0.,0.00000482,0.00009987,0.,0.00000225,0.00000268
 ,0.\\\@


          EVOLUTION
 IN THE BEGINNING GOD MADE MAN.
 HE WORKED THE DIRT WITH HIS HANDS.
 THEN GOD DECIDED TO GIVE MAN SCIENCE,
 MAN SHOULD BE USEFUL (LIKE AN APPLIANCE.)
 BUT SOON MAN'S KNOWLEDGE GREW TOO GREAT,
 TO THE HEADING SCIENCE HE COULDN'T RELATE
 SO GOD SAID "LETS HAVE DIFFERENT FIELDS,
 WE'LL DIVIDE THEM UP, SEE WHAT IT YIELDS."
 ENTER PHYSICS, CHEMISTRY, BIO
 THEY SPRANG UP AROUND THE NILE.
 BUT CHEMISTRY SURPASSED THE REST
 FAR AND AWAY IT WAS THE BEST.
 EXPERIMENT WAS GOD'S DECREE
 EXPERIMENT DID CHEMISTS WITH LOTS OF GLEE
 BUT SOON THEIR TESTS BEGAN TO BOG,
 THEY FOUND THEMSELVES DEEP IN A FOG.
 "GIVE US SOME HELP" THEY CRIED TO GOD.
 GOD LOOKED AROUND, THEN GAVE THE NOD.
 ENTER EINSTEIN, HEISENBERG, BOHR,
 REACTION PATHS WERE CLEAR ONCE MORE.
 WITH THEORISTS GOD SEND DIRECTION
 AND THEN HE STOPPED, HE'D MADE PERFECTION.
          -- THOMAS A. HOLME, 1981
 Job cpu time:       0 days  0 hours 53 minutes  5.3 seconds.
 Elapsed time:       0 days  0 hours  4 minutes 27.4 seconds.
 File lengths (MBytes):  RWF=    142 Int=      0 D2E=      0 Chk=      9 Scr=      1
 Normal termination of Gaussian 16 at Fri Jun 17 14:32:05 2022.
