 Entering Gaussian System, Link 0=g16
 AtFile(1): pcseg2.gbs
            -H     0
            S   4   1.00
                  0.754732D+02           0.427821D-02
                  0.113575D+02           0.328672D-01
                  0.260081D+01           0.159578D+00
                  0.735503D+00           0.500000D+00
            S   1   1.00
                  0.231761D+00           1.0000000
            S   1   1.00
                  0.741675D-01           1.0000000
            P   1   1.00
                  0.160000D+01           1.0000000
            P   1   1.00
                  0.450000D+00           1.0000000
            D   1   1.00
                  0.125000D+01           1.0000000
            ****
            -C     0
            S   7   1.00
                  0.731999D+04           0.695369D-03
                  0.109818D+04           0.537138D-02
                  0.250014D+03           0.274734D-01
                  0.707586D+02           0.105078D+00
                  0.228595D+02           0.291262D+00
                  0.803936D+01           0.500000D+00
                  0.289309D+01           0.362224D+00
            S   2   1.00
                  0.521640D+01          -0.957844D-01
                  0.556124D+00           0.500000D+00
            S   1   1.00
                  0.228813D+00           1.0000000
            S   1   1.00
                  0.936338D-01           1.0000000
            P   4   1.00
                  0.339855D+02           0.818395D-02
                  0.772957D+01           0.586921D-01
                  0.224954D+01           0.222514D+00
                  0.767681D+00           0.500000D+00
            P   1   1.00
                  0.263283D+00           1.0000000
            P   1   1.00
                  0.848744D-01           1.0000000
            D   1   1.00
                  0.140000D+01           1.0000000
            D   1   1.00
                  0.450000D+00           1.0000000
            F   1   1.00
                  0.950000D+00           1.0000000
            ****
            -O     0
            S   7   1.00
                  0.135887D+05           0.665492D-03
                  0.203847D+04           0.514222D-02
                  0.464041D+03           0.263472D-01
                  0.131339D+03           0.101500D+00
                  0.425340D+02           0.285877D+00
                  0.150429D+02           0.500000D+00
                  0.546616D+01           0.368211D+00
            S   2   1.00
                  0.100915D+02          -0.100084D+00
                  0.110429D+01           0.500000D+00
            S   1   1.00
                  0.448082D+00           1.0000000
            S   1   1.00
                  0.175325D+00           1.0000000
            P   4   1.00
                  0.608220D+02           0.908253D-02
                  0.140332D+02           0.645878D-01
                  0.418244D+01           0.241502D+00
                  0.142490D+01           0.500000D+00
            P   1   1.00
                  0.478741D+00           1.0000000
            P   1   1.00
                  0.146257D+00           1.0000000
            D   1   1.00
                  0.220000D+01           1.0000000
            D   1   1.00
                  0.650000D+00           1.0000000
            F   1   1.00
                  0.110000D+01           1.0000000
            ****
            -N     0
            S   7   1.00
                  0.101643D+05           0.682757D-03
                  0.152481D+04           0.527488D-02
                  0.347119D+03           0.270037D-01
                  0.982389D+02           0.103673D+00
                  0.317799D+02           0.289575D+00
                  0.112240D+02           0.500000D+00
                  0.406611D+01           0.364621D+00
            S   2   1.00
                  0.747898D+01          -0.975681D-01
                  0.805040D+00           0.500000D+00
            S   1   1.00
                  0.324626D+00           1.0000000
            S   1   1.00
                  0.128132D+00           1.0000000
            P   4   1.00
                  0.482704D+02           0.829547D-02
                  0.110815D+02           0.596223D-01
                  0.326643D+01           0.227889D+00
                  0.111680D+01           0.500000D+00
            P   1   1.00
                  0.382049D+00           1.0000000
            P   1   1.00
                  0.121222D+00           1.0000000
            D   1   1.00
                  0.180000D+01           1.0000000
            D   1   1.00
                  0.550000D+00           1.0000000
            F   1   1.00
                  0.102000D+01           1.0000000
            ****
            -F     0
            S   7   1.00
                  0.174507D+05           0.655972D-03
                  0.261768D+04           0.506944D-02
                  0.595857D+03           0.259899D-01
                  0.168651D+03           0.100353D+00
                  0.546654D+02           0.284095D+00
                  0.193717D+02           0.500000D+00
                  0.706202D+01           0.370721D+00
            S   2   1.00
                  0.131197D+02          -0.101997D+00
                  0.145046D+01           0.500000D+00
            S   1   1.00
                  0.588255D+00           1.0000000
            S   1   1.00
                  0.227960D+00           1.0000000
            P   4   1.00
                  0.779407D+02           0.931135D-02
                  0.180425D+02           0.663964D-01
                  0.542342D+01           0.246386D+00
                  0.184876D+01           0.500000D+00
            P   1   1.00
                  0.617455D+00           1.0000000
            P   1   1.00
                  0.185496D+00           1.0000000
            D   1   1.00
                  0.280000D+01           1.0000000
            D   1   1.00
                  0.800000D+00           1.0000000
            F   1   1.00
                  0.120000D+01           1.0000000
            ****
            -Cl     0
            S   8   1.00
                  0.154272D+06           0.222473D-03
                  0.231232D+05           0.172590D-02
                  0.526257D+04           0.899286D-02
                  0.148995D+04           0.367724D-01
                  0.485417D+03           0.121446D+00
                  0.174634D+03           0.304148D+00
                  0.672393D+02           0.500000D+00
                  0.265780D+02           0.360252D+00
            S   3   1.00
                  0.131826D+03          -0.531330D-01
                  0.400703D+02          -0.233346D+00
                  0.789448D+01           0.500000D+00
            S   2   1.00
                  0.427711D+01           0.500000D+00
                  0.196233D+01           0.370517D+00
            S   1   1.00
                  0.520793D+00           1.0000000
            S   1   1.00
                  0.181633D+00           1.0000000
            P   7   1.00
                  0.124440D+04           0.988206D-03
                  0.295109D+03           0.829674D-02
                  0.947224D+02           0.430906D-01
                  0.352588D+02           0.148443D+00
                  0.144211D+02           0.344744D+00
                  0.610371D+01           0.500000D+00
                  0.258886D+01           0.348278D+00
            P   2   1.00
                  0.109447D+02          -0.196768D-01
                  0.104413D+01           0.500000D+00
            P   1   1.00
                  0.376184D+00           1.0000000
            P   1   1.00
                  0.120613D+00           1.0000000
            D   1   1.00
                  0.231000D+01           1.0000000
            D   1   1.00
                  0.520000D+00           1.0000000
            F   1   1.00
                  0.720000D+00           1.0000000
            ****
            -S     0
            S   8   1.00
                  0.134700D+06           0.226231D-03
                  0.201904D+05           0.175488D-02
                  0.459528D+04           0.914190D-02
                  0.130109D+04           0.373551D-01
                  0.423902D+03           0.123121D+00
                  0.152485D+03           0.306801D+00
                  0.586925D+02           0.500000D+00
                  0.231461D+02           0.354358D+00
            S   3   1.00
                  0.116327D+03          -0.491772D-01
                  0.352841D+02          -0.215962D+00
                  0.677831D+01           0.500000D+00
            S   2   1.00
                  0.360404D+01           0.500000D+00
                  0.164871D+01           0.366278D+00
            S   1   1.00
                  0.421821D+00           1.0000000
            S   1   1.00
                  0.147554D+00           1.0000000
            P   7   1.00
                  0.104863D+04           0.105273D-02
                  0.248717D+03           0.879338D-02
                  0.797887D+02           0.453358D-01
                  0.296023D+02           0.154476D+00
                  0.120627D+02           0.352366D+00
                  0.507628D+01           0.500000D+00
                  0.213375D+01           0.346429D+00
            P   2   1.00
                  0.928958D+01          -0.185932D-01
                  0.837819D+00           0.500000D+00
            P   1   1.00
                  0.301495D+00           1.0000000
            P   1   1.00
                  0.974740D-01           1.0000000
            D   1   1.00
                  0.210000D+01           1.0000000
            D   1   1.00
                  0.480000D+00           1.0000000
            F   1   1.00
                  0.660000D+00           1.0000000
            ****
            -Br     0
            S    10   1.00
                  0.233625D+07           0.532336D-04
                  0.349961D+06           0.413715D-03
                  0.796444D+05           0.217123D-02
                  0.225555D+05           0.910109D-02
                  0.735546D+04           0.323789D-01
                  0.265352D+04           0.988755D-01
                  0.103517D+04           0.248138D+00
                  0.422205D+03           0.474328D+00
                  0.180035D+03           0.500000D+00
                  0.793308D+02           0.187769D+00
            S    4   1.00
                  0.620834D+03          -0.226511D-01
                  0.190829D+03          -0.109497D+00
                  0.312505D+02           0.500000D+00
                  0.135270D+02           0.492812D+00
            S    2   1.00
                  0.216097D+02          -0.165418D+00
                  0.372566D+01           0.500000D+00
            S    1   1.00
                  0.169770D+01           1.0000000
            S    1   1.00
                  0.489332D+00           1.0000000
            S    1   1.00
                  0.175712D+00           1.0000000
            P    8   1.00
                  0.960829D+04           0.478974D-03
                  0.227618D+04           0.417853D-02
                  0.736723D+03           0.229315D-01
                  0.281579D+03           0.892653D-01
                  0.118395D+03           0.255288D+00
                  0.527481D+02           0.479074D+00
                  0.245098D+02           0.500000D+00
                  0.112009D+02           0.200944D+00
            P    4   1.00
                  0.587849D+02          -0.189674D-01
                  0.918962D+01           0.264104D+00
                  0.413895D+01           0.500000D+00
                  0.184225D+01           0.319316D+00
            P    1   1.00
                  0.713862D+00           1.0000000
            P    1   1.00
                  0.274232D+00           1.0000000
            P    1   1.00
                  0.944411D-01           1.0000000
            D    7   1.00
                  0.398470D+03           0.204066D-02
                  0.118967D+03           0.175171D-01
                  0.450197D+02           0.829708D-01
                  0.190320D+02           0.236284D+00
                  0.855686D+01           0.428468D+00
                  0.382950D+01           0.500000D+00
                  0.166291D+01           0.349360D+00
            D    1   1.00
                  0.672953D+00           1.0000000
            D    1   1.00
                  0.252000D+00           1.0000000
            F    1   1.00
                  0.530000D+00           1.0000000
            ****
            -Si     0
            S    8   1.00
                  0.996133D+05           0.235546D-03
                  0.149311D+05           0.182707D-02
                  0.339820D+04           0.951425D-02
                  0.962140D+03           0.388172D-01
                  0.313430D+03           0.127328D+00
                  0.112683D+03           0.313522D+00
                  0.433372D+02           0.500000D+00
                  0.170029D+02           0.340347D+00
            S    3   1.00
                  0.884208D+02          -0.404451D-01
                  0.266756D+02          -0.178059D+00
                  0.479640D+01           0.500000D+00
            S    2   1.00
                  0.239385D+01           0.500000D+00
                  0.108333D+01           0.338016D+00
            S    1   1.00
                  0.252420D+00           1.0000000
            S    1   1.00
                  0.891210D-01           1.0000000
            P    7   1.00
                  0.709901D+03           0.123028D-02
                  0.168426D+03           0.101366D-01
                  0.539946D+02           0.511840D-01
                  0.198646D+02           0.169967D+00
                  0.801369D+01           0.370717D+00
                  0.331870D+01           0.500000D+00
                  0.136112D+01           0.344128D+00
            P    2   1.00
                  0.622158D+01          -0.166609D-01
                  0.503049D+00           0.500000D+00
            P    1   1.00
                  0.179848D+00           1.0000000
            P    1   1.00
                  0.591912D-01           1.0000000
            D    1   1.00
                  0.168000D+01           1.0000000
            D    1   1.00
                  0.380000D+00           1.0000000
            F    1   1.00
                  0.540000D+00           1.0000000
            ****
            -P     0
            S    8   1.00
                  0.116416D+06           0.230715D-03
                  0.174500D+05           0.178960D-02
                  0.397149D+04           0.932116D-02
                  0.112447D+04           0.380591D-01
                  0.366347D+03           0.125148D+00
                  0.131757D+03           0.310022D+00
                  0.506988D+02           0.500000D+00
                  0.199436D+02           0.347528D+00
            S    3   1.00
                  0.101878D+03          -0.446755D-01
                  0.308249D+02          -0.196376D+00
                  0.573688D+01           0.500000D+00
            S    2   1.00
                  0.296868D+01           0.500000D+00
                  0.135315D+01           0.355098D+00
            S    1   1.00
                  0.332196D+00           1.0000000
            S    1   1.00
                  0.116229D+00           1.0000000
            P    7   1.00
                  0.873928D+03           0.112375D-02
                  0.207298D+03           0.933330D-02
                  0.664628D+02           0.477213D-01
                  0.245665D+02           0.160733D+00
                  0.996820D+01           0.359760D+00
                  0.416536D+01           0.500000D+00
                  0.173022D+01           0.346593D+00
            P    2   1.00
                  0.772530D+01          -0.175718D-01
                  0.657252D+00           0.500000D+00
            P    1   1.00
                  0.239903D+00           1.0000000
            P    1   1.00
                  0.800988D-01           1.0000000
            D    1   1.00
                  0.189000D+01           1.0000000
            D    1   1.00
                  0.430000D+00           1.0000000
            F    1   1.00
                  0.600000D+00           1.0000000
            ****
            
 Initial command:
 /usr/local/apps/g16_b01_avx/g16/l1.exe "/wrk/irikura/Gau-494299.inp" -scrdir="/wrk/irikura/"
 Entering Link 1 = /usr/local/apps/g16_b01_avx/g16/l1.exe PID=    494301.
  
 Copyright (c) 1988-2017, Gaussian, Inc.  All Rights Reserved.
  
 This is part of the Gaussian(R) 16 program.  It is based on
 the Gaussian(R) 09 system (copyright 2009, Gaussian, Inc.),
 the Gaussian(R) 03 system (copyright 2003, Gaussian, Inc.),
 the Gaussian(R) 98 system (copyright 1998, Gaussian, Inc.),
 the Gaussian(R) 94 system (copyright 1995, Gaussian, Inc.),
 the Gaussian 92(TM) system (copyright 1992, Gaussian, Inc.),
 the Gaussian 90(TM) system (copyright 1990, Gaussian, Inc.),
 the Gaussian 88(TM) system (copyright 1988, Gaussian, Inc.),
 the Gaussian 86(TM) system (copyright 1986, Carnegie Mellon
 University), and the Gaussian 82(TM) system (copyright 1983,
 Carnegie Mellon University). Gaussian is a federally registered
 trademark of Gaussian, Inc.
  
 This software contains proprietary and confidential information,
 including trade secrets, belonging to Gaussian, Inc.
  
 This software is provided under written license and may be
 used, copied, transmitted, or stored only in accord with that
 written license.
  
 The following legend is applicable only to US Government
 contracts under FAR:
  
                    RESTRICTED RIGHTS LEGEND
  
 Use, reproduction and disclosure by the US Government is
 subject to restrictions as set forth in subparagraphs (a)
 and (c) of the Commercial Computer Software - Restricted
 Rights clause in FAR 52.227-19.
  
 Gaussian, Inc.
 340 Quinnipiac St., Bldg. 40, Wallingford CT 06492
  
  
 ---------------------------------------------------------------
 Warning -- This program may not be used in any manner that
 competes with the business of Gaussian, Inc. or will provide
 assistance to any competitor of Gaussian, Inc.  The licensee
 of this program is prohibited from giving any competitor of
 Gaussian, Inc. access to this program.  By using this program,
 the user acknowledges that Gaussian, Inc. is engaged in the
 business of creating and licensing software in the field of
 computational chemistry and represents and warrants to the
 licensee that it is not a competitor of Gaussian, Inc. and that
 it will not use this program in any manner prohibited above.
 ---------------------------------------------------------------
  

 Cite this work as:
 Gaussian 16, Revision B.01,
 M. J. Frisch, G. W. Trucks, H. B. Schlegel, G. E. Scuseria, 
 M. A. Robb, J. R. Cheeseman, G. Scalmani, V. Barone, 
 G. A. Petersson, H. Nakatsuji, X. Li, M. Caricato, A. V. Marenich, 
 J. Bloino, B. G. Janesko, R. Gomperts, B. Mennucci, H. P. Hratchian, 
 J. V. Ortiz, A. F. Izmaylov, J. L. Sonnenberg, D. Williams-Young, 
 F. Ding, F. Lipparini, F. Egidi, J. Goings, B. Peng, A. Petrone, 
 T. Henderson, D. Ranasinghe, V. G. Zakrzewski, J. Gao, N. Rega, 
 G. Zheng, W. Liang, M. Hada, M. Ehara, K. Toyota, R. Fukuda, 
 J. Hasegawa, M. Ishida, T. Nakajima, Y. Honda, O. Kitao, H. Nakai, 
 T. Vreven, K. Throssell, J. A. Montgomery, Jr., J. E. Peralta, 
 F. Ogliaro, M. J. Bearpark, J. J. Heyd, E. N. Brothers, K. N. Kudin, 
 V. N. Staroverov, T. A. Keith, R. Kobayashi, J. Normand, 
 K. Raghavachari, A. P. Rendell, J. C. Burant, S. S. Iyengar, 
 J. Tomasi, M. Cossi, J. M. Millam, M. Klene, C. Adamo, R. Cammi, 
 J. W. Ochterski, R. L. Martin, K. Morokuma, O. Farkas, 
 J. B. Foresman, and D. J. Fox, Gaussian, Inc., Wallingford CT, 2016.
 
 ******************************************
 Gaussian 16:  ES64L-G16RevB.01 20-Dec-2017
                 1-Oct-2023 
 ******************************************
 %chk=onono2.chk
 %mem=500mw
 %nprocs=4
 Will use up to    4 processors via shared memory.
 ---------------------------------------
 # b3lyp/gen opt freq CPHF(Grid=OneStep)
 ---------------------------------------
 1/18=20,19=15,26=3,38=1/1,3;
 2/9=110,12=2,17=6,18=5,40=1/2;
 3/5=7,11=2,25=1,30=1,71=1,74=-5/1,2,3;
 4//1;
 5/5=2,38=5/2;
 6/7=2,8=2,9=2,10=2,28=1/1;
 7//1,2,3,16;
 1/18=20,19=15,26=3/3(2);
 2/9=110/2;
 99//99;
 2/9=110/2;
 3/5=7,6=1,11=2,25=1,30=1,71=1,74=-5,82=7/1,2,3;
 4/5=5,16=3,69=1/1;
 5/5=2,38=5/2;
 7//1,2,3,16;
 1/18=20,19=15,26=3/3(-5);
 2/9=110/2;
 6/7=2,8=2,9=2,10=2,19=2,28=1/1;
 99/9=1/99;
 -------------------------------
 nitrosyl nitrate, B3LYP/pcseg-2
 -------------------------------
 Symbolic Z-matrix:
 Charge =  0 Multiplicity = 1
 N                     1.03708   0.02641  -0.01696 
 O                    -0.21389  -0.63478  -0.14454 
 N                    -1.45186   0.37247   0.1549 
 O                    -2.40826  -0.20183  -0.01872 
 O                     1.95042  -0.73941   0.10061 
 O                     1.03466   1.227    -0.05805 
 

 GradGradGradGradGradGradGradGradGradGradGradGradGradGradGradGradGradGrad
 Berny optimization.
 Initialization pass.
                           ----------------------------
                           !    Initial Parameters    !
                           ! (Angstroms and Degrees)  !
 --------------------------                            --------------------------
 ! Name  Definition              Value          Derivative Info.                !
 --------------------------------------------------------------------------------
 ! R1    R(1,2)                  1.4207         estimate D2E/DX2                !
 ! R2    R(1,5)                  1.1977         estimate D2E/DX2                !
 ! R3    R(1,6)                  1.2013         estimate D2E/DX2                !
 ! R4    R(2,3)                  1.6238         estimate D2E/DX2                !
 ! R5    R(3,4)                  1.129          estimate D2E/DX2                !
 ! A1    A(2,1,5)              112.5019         estimate D2E/DX2                !
 ! A2    A(2,1,6)              117.4051         estimate D2E/DX2                !
 ! A3    A(5,1,6)              130.0849         estimate D2E/DX2                !
 ! A4    A(1,2,3)              111.4729         estimate D2E/DX2                !
 ! A5    A(2,3,4)              107.5741         estimate D2E/DX2                !
 ! D1    D(5,1,2,3)            162.4659         estimate D2E/DX2                !
 ! D2    D(6,1,2,3)            -18.4592         estimate D2E/DX2                !
 ! D3    D(2,1,5,6)            178.9266         estimate D2E/DX2                !
 ! D4    D(1,2,3,4)            176.9857         estimate D2E/DX2                !
 --------------------------------------------------------------------------------
 Trust Radius=3.00D-01 FncErr=1.00D-07 GrdErr=1.00D-06 EigMax=2.50D+02 EigMin=1.00D-04
 Number of steps in this run=     24 maximum allowed number of steps=    100.
 GradGradGradGradGradGradGradGradGradGradGradGradGradGradGradGradGradGrad

                          Input orientation:                          
 ---------------------------------------------------------------------
 Center     Atomic      Atomic             Coordinates (Angstroms)
 Number     Number       Type             X           Y           Z
 ---------------------------------------------------------------------
      1          7           0        1.037078    0.026409   -0.016961
      2          8           0       -0.213889   -0.634776   -0.144542
      3          7           0       -1.451858    0.372466    0.154903
      4          8           0       -2.408259   -0.201833   -0.018721
      5          8           0        1.950421   -0.739409    0.100613
      6          8           0        1.034659    1.227002   -0.058050
 ---------------------------------------------------------------------
                    Distance matrix (angstroms):
                    1          2          3          4          5
     1  N    0.000000
     2  O    1.420690   0.000000
     3  N    2.518749   1.623814   0.000000
     4  O    3.452889   2.240208   1.129012   0.000000
     5  O    1.197705   2.180662   3.579765   4.393327   0.000000
     6  O    1.201298   2.243339   2.637868   3.727841   2.174986
                    6
     6  O    0.000000
 Stoichiometry    N2O4
 Framework group  C1[X(N2O4)]
 Deg. of freedom    12
 Full point group                 C1      NOp   1
 Largest Abelian subgroup         C1      NOp   1
 Largest concise Abelian subgroup C1      NOp   1
                         Standard orientation:                         
 ---------------------------------------------------------------------
 Center     Atomic      Atomic             Coordinates (Angstroms)
 Number     Number       Type             X           Y           Z
 ---------------------------------------------------------------------
      1          7           0        1.037078    0.026409   -0.016961
      2          8           0       -0.213889   -0.634776   -0.144542
      3          7           0       -1.451858    0.372466    0.154903
      4          8           0       -2.408259   -0.201833   -0.018721
      5          8           0        1.950421   -0.739409    0.100613
      6          8           0        1.034659    1.227002   -0.058050
 ---------------------------------------------------------------------
 Rotational constants (GHZ):          11.8161079           2.3295716           1.9594421
 General basis read from cards:  (5D, 7F)
 There are   210 symmetry adapted cartesian basis functions of A   symmetry.
 There are   180 symmetry adapted basis functions of A   symmetry.
   180 basis functions,   306 primitive gaussians,   210 cartesian basis functions
    23 alpha electrons       23 beta electrons
       nuclear repulsion energy       231.2664558738 Hartrees.
 NAtoms=    6 NActive=    6 NUniq=    6 SFac= 1.00D+00 NAtFMM=   60 NAOKFM=F Big=F
 Integral buffers will be    131072 words long.
 Raffenetti 2 integral format.
 Two-electron integral symmetry is turned on.
 One-electron integrals computed using PRISM.
 NBasis=   180 RedAO= T EigKep=  8.79D-04  NBF=   180
 NBsUse=   180 1.00D-06 EigRej= -1.00D+00 NBFU=   180
 ExpMin= 1.21D-01 ExpMax= 1.36D+04 ExpMxC= 4.64D+02 IAcc=3 IRadAn=         5 AccDes= 0.00D+00
 Harris functional with IExCor=  402 and IRadAn=       5 diagonalized for initial guess.
 HarFok:  IExCor=  402 AccDes= 0.00D+00 IRadAn=         5 IDoV= 1 UseB2=F ITyADJ=14
 ICtDFT=  3500011 ScaDFX=  1.000000  1.000000  1.000000  1.000000
 FoFCou: FMM=F IPFlag=           0 FMFlag=      100000 FMFlg1=           0
         NFxFlg=           0 DoJE=T BraDBF=F KetDBF=T FulRan=T
         wScrn=  0.000000 ICntrl=       500 IOpCl=  0 I1Cent=   200000004 NGrid=           0
         NMat0=    1 NMatS0=      1 NMatT0=    0 NMatD0=    1 NMtDS0=    0 NMtDT0=    0
 Petite list used in FoFCou.
 Keep R1 ints in memory in canonical form, NReq=137387976.
 Requested convergence on RMS density matrix=1.00D-08 within 128 cycles.
 Requested convergence on MAX density matrix=1.00D-06.
 Requested convergence on             energy=1.00D-06.
 No special actions if energy rises.
 Integral accuracy reduced to 1.0D-05 until final iterations.
 Initial convergence to 1.0D-05 achieved.  Increase integral accuracy.
 SCF Done:  E(RB3LYP) =  -410.331163680     A.U. after   15 cycles
            NFock= 15  Conv=0.93D-08     -V/T= 2.0027

 **********************************************************************

            Population analysis using the SCF Density.

 **********************************************************************

 Orbital symmetries:
       Occupied  (A) (A) (A) (A) (A) (A) (A) (A) (A) (A) (A) (A)
                 (A) (A) (A) (A) (A) (A) (A) (A) (A) (A) (A)
       Virtual   (A) (A) (A) (A) (A) (A) (A) (A) (A) (A) (A) (A)
                 (A) (A) (A) (A) (A) (A) (A) (A) (A) (A) (A) (A)
                 (A) (A) (A) (A) (A) (A) (A) (A) (A) (A) (A) (A)
                 (A) (A) (A) (A) (A) (A) (A) (A) (A) (A) (A) (A)
                 (A) (A) (A) (A) (A) (A) (A) (A) (A) (A) (A) (A)
                 (A) (A) (A) (A) (A) (A) (A) (A) (A) (A) (A) (A)
                 (A) (A) (A) (A) (A) (A) (A) (A) (A) (A) (A) (A)
                 (A) (A) (A) (A) (A) (A) (A) (A) (A) (A) (A) (A)
                 (A) (A) (A) (A) (A) (A) (A) (A) (A) (A) (A) (A)
                 (A) (A) (A) (A) (A) (A) (A) (A) (A) (A) (A) (A)
                 (A) (A) (A) (A) (A) (A) (A) (A) (A) (A) (A) (A)
                 (A) (A) (A) (A) (A) (A) (A) (A) (A) (A) (A) (A)
                 (A) (A) (A) (A) (A) (A) (A) (A) (A) (A) (A) (A)
                 (A)
 The electronic state is 1-A.
 Alpha  occ. eigenvalues --  -19.31156 -19.23359 -19.20021 -19.19927 -14.62908
 Alpha  occ. eigenvalues --  -14.57249  -1.33525  -1.30279  -1.12290  -1.06662
 Alpha  occ. eigenvalues --   -0.76375  -0.68094  -0.61359  -0.60296  -0.58435
 Alpha  occ. eigenvalues --   -0.57244  -0.55498  -0.53745  -0.38708  -0.37616
 Alpha  occ. eigenvalues --   -0.36052  -0.35284  -0.32897
 Alpha virt. eigenvalues --   -0.15827  -0.08619  -0.05267   0.03169   0.12491
 Alpha virt. eigenvalues --    0.13264   0.18816   0.20111   0.20900   0.24659
 Alpha virt. eigenvalues --    0.26578   0.27728   0.30691   0.32082   0.33956
 Alpha virt. eigenvalues --    0.34814   0.37883   0.39234   0.40717   0.42772
 Alpha virt. eigenvalues --    0.43740   0.44989   0.46481   0.47482   0.48869
 Alpha virt. eigenvalues --    0.51673   0.58022   0.70955   0.77119   0.85357
 Alpha virt. eigenvalues --    0.88126   0.94217   1.01439   1.09521   1.11843
 Alpha virt. eigenvalues --    1.16889   1.21104   1.29668   1.31325   1.38265
 Alpha virt. eigenvalues --    1.41440   1.46952   1.47939   1.48810   1.52800
 Alpha virt. eigenvalues --    1.60047   1.61263   1.63832   1.65272   1.72055
 Alpha virt. eigenvalues --    1.74310   1.78283   1.80777   1.83491   1.89612
 Alpha virt. eigenvalues --    1.91351   1.93350   1.93839   1.95474   2.00090
 Alpha virt. eigenvalues --    2.02145   2.05045   2.08687   2.11482   2.19696
 Alpha virt. eigenvalues --    2.29205   2.30718   2.33639   2.39224   2.42398
 Alpha virt. eigenvalues --    2.44628   2.47374   2.49795   2.53894   2.74578
 Alpha virt. eigenvalues --    2.78137   2.87781   2.91588   2.95521   3.03987
 Alpha virt. eigenvalues --    3.15277   3.28942   3.32778   3.38042   3.43200
 Alpha virt. eigenvalues --    3.48847   3.49593   3.61309   3.71498   3.73450
 Alpha virt. eigenvalues --    3.73607   3.77259   3.86555   3.90105   3.93261
 Alpha virt. eigenvalues --    3.94334   3.94591   3.95157   3.95635   3.99128
 Alpha virt. eigenvalues --    4.00959   4.12763   4.26886   4.35045   4.42393
 Alpha virt. eigenvalues --    4.46335   4.48396   4.52927   4.54505   4.56279
 Alpha virt. eigenvalues --    4.60805   4.73400   4.80587   4.84824   4.93478
 Alpha virt. eigenvalues --    4.97765   5.00785   5.07015   5.09023   5.13930
 Alpha virt. eigenvalues --    5.14866   5.25760   5.42676   5.54691   5.76777
 Alpha virt. eigenvalues --    5.78436   5.86374   5.89382   5.89501   5.91519
 Alpha virt. eigenvalues --    5.93732   5.99977   6.00870   6.03327   6.04168
 Alpha virt. eigenvalues --    6.13376   6.15770   6.19541   6.26743   6.27279
 Alpha virt. eigenvalues --    6.31009   6.39708   6.42670   6.44652   6.47081
 Alpha virt. eigenvalues --    6.49469   6.54105   6.57771   6.69481   6.83465
 Alpha virt. eigenvalues --    6.86347   7.13249   7.26667   7.38955   7.54899
 Alpha virt. eigenvalues --    7.97464   9.65365
          Condensed to atoms (all electrons):
               1          2          3          4          5          6
     1  N    5.324762   0.205651  -0.004526   0.002362   0.446991   0.438800
     2  O    0.205651   8.351241  -0.028468  -0.059238  -0.111813  -0.103296
     3  N   -0.004526  -0.028468   6.419961   0.349750  -0.000464  -0.013053
     4  O    0.002362  -0.059238   0.349750   7.730978  -0.000870   0.000827
     5  O    0.446991  -0.111813  -0.000464  -0.000870   8.072135  -0.126675
     6  O    0.438800  -0.103296  -0.013053   0.000827  -0.126675   8.108968
 Mulliken charges:
               1
     1  N    0.585959
     2  O   -0.254076
     3  N    0.276800
     4  O   -0.023809
     5  O   -0.279303
     6  O   -0.305571
 Sum of Mulliken charges =  -0.00000
 Mulliken charges with hydrogens summed into heavy atoms:
               1
     1  N    0.585959
     2  O   -0.254076
     3  N    0.276800
     4  O   -0.023809
     5  O   -0.279303
     6  O   -0.305571
 Electronic spatial extent (au):  <R**2>=            535.0277
 Charge=              0.0000 electrons
 Dipole moment (field-independent basis, Debye):
    X=             -2.7709    Y=              0.2522    Z=              0.1319  Tot=              2.7855
 Quadrupole moment (field-independent basis, Debye-Ang):
   XX=            -32.4863   YY=            -35.4723   ZZ=            -29.9631
   XY=             -0.3516   XZ=             -0.5296   YZ=             -0.2409
 Traceless Quadrupole moment (field-independent basis, Debye-Ang):
   XX=              0.1543   YY=             -2.8318   ZZ=              2.6775
   XY=             -0.3516   XZ=             -0.5296   YZ=             -0.2409
 Octapole moment (field-independent basis, Debye-Ang**2):
  XXX=            -14.5259  YYY=             -1.8926  ZZZ=              0.0122  XYY=             -4.0403
  XXY=              1.8241  XXZ=             -0.5544  XZZ=             -1.0277  YZZ=             -0.0374
  YYZ=             -0.1075  XYZ=              0.8608
 Hexadecapole moment (field-independent basis, Debye-Ang**3):
 XXXX=           -472.1516 YYYY=           -116.8964 ZZZZ=            -25.2855 XXXY=              2.7963
 XXXZ=             -1.5931 YYYX=             -0.1774 YYYZ=             -0.3646 ZZZX=             -0.0241
 ZZZY=             -0.3865 XXYY=            -99.3054 XXZZ=            -76.3730 YYZZ=            -23.2691
 XXYZ=             -0.6044 YYXZ=              0.0869 ZZXY=              0.3778
 N-N= 2.312664558738D+02 E-N=-1.429190983839D+03  KE= 4.092127121837D+02
 Calling FoFJK, ICntrl=      2127 FMM=F ISym2X=0 I1Cent= 0 IOpClX= 0 NMat=1 NMatS=1 NMatT=0.
 ***** Axes restored to original set *****
 -------------------------------------------------------------------
 Center     Atomic                   Forces (Hartrees/Bohr)
 Number     Number              X              Y              Z
 -------------------------------------------------------------------
      1        7           0.000083266   -0.000111971    0.000007788
      2        8          -0.000072552   -0.000019007   -0.000007672
      3        7           0.000028869   -0.000004593    0.000000773
      4        8          -0.000022270   -0.000007417   -0.000000095
      5        8          -0.000046546    0.000082119   -0.000001478
      6        8           0.000029233    0.000060869    0.000000684
 -------------------------------------------------------------------
 Cartesian Forces:  Max     0.000111971 RMS     0.000047196

 GradGradGradGradGradGradGradGradGradGradGradGradGradGradGradGradGradGrad
 Berny optimization.
 FormGI is forming the generalized inverse of G from B-inverse, IUseBI=4.
 Internal  Forces:  Max     0.000088069 RMS     0.000038796
 Search for a local minimum.
 Step number   1 out of a maximum of   24
 All quantities printed in internal units (Hartrees-Bohrs-Radians)
 Mixed Optimization -- En-DIIS/RFO-DIIS
 Second derivative matrix not updated -- first step.
 The second derivative matrix:
                          R1        R2        R3        R4        R5
           R1           0.42357
           R2           0.00000   1.05985
           R3           0.00000   0.00000   1.04173
           R4           0.00000   0.00000   0.00000   0.22218
           R5           0.00000   0.00000   0.00000   0.00000   1.50423
           A1           0.00000   0.00000   0.00000   0.00000   0.00000
           A2           0.00000   0.00000   0.00000   0.00000   0.00000
           A3           0.00000   0.00000   0.00000   0.00000   0.00000
           A4           0.00000   0.00000   0.00000   0.00000   0.00000
           A5           0.00000   0.00000   0.00000   0.00000   0.00000
           D1           0.00000   0.00000   0.00000   0.00000   0.00000
           D2           0.00000   0.00000   0.00000   0.00000   0.00000
           D3           0.00000   0.00000   0.00000   0.00000   0.00000
           D4           0.00000   0.00000   0.00000   0.00000   0.00000
                          A1        A2        A3        A4        A5
           A1           0.25000
           A2           0.00000   0.25000
           A3           0.00000   0.00000   0.25000
           A4           0.00000   0.00000   0.00000   0.25000
           A5           0.00000   0.00000   0.00000   0.00000   0.25000
           D1           0.00000   0.00000   0.00000   0.00000   0.00000
           D2           0.00000   0.00000   0.00000   0.00000   0.00000
           D3           0.00000   0.00000   0.00000   0.00000   0.00000
           D4           0.00000   0.00000   0.00000   0.00000   0.00000
                          D1        D2        D3        D4
           D1           0.01021
           D2           0.00000   0.01021
           D3           0.00000   0.00000   0.03971
           D4           0.00000   0.00000   0.00000   0.00230
 ITU=  0
     Eigenvalues ---    0.00230   0.01021   0.03173   0.22218   0.24998
     Eigenvalues ---    0.25000   0.25000   0.25000   0.42357   1.04173
     Eigenvalues ---    1.05985   1.50423
 RFO step:  Lambda=-5.01475547D-08 EMin= 2.30000000D-03
 Linear search not attempted -- first point.
 Iteration  1 RMS(Cart)=  0.00059397 RMS(Int)=  0.00000029
 Iteration  2 RMS(Cart)=  0.00000028 RMS(Int)=  0.00000000
 Variable       Old X    -DE/DX   Delta X   Delta X   Delta X     New X
                                 (Linear)    (Quad)   (Total)
    R1        2.68472   0.00007   0.00000   0.00017   0.00017   2.68489
    R2        2.26333  -0.00009   0.00000  -0.00008  -0.00008   2.26325
    R3        2.27012   0.00006   0.00000   0.00006   0.00006   2.27018
    R4        3.06856  -0.00001   0.00000  -0.00005  -0.00005   3.06851
    R5        2.13352   0.00002   0.00000   0.00002   0.00002   2.13354
    A1        1.96353   0.00003   0.00000   0.00011   0.00011   1.96364
    A2        2.04911   0.00002   0.00000   0.00008   0.00008   2.04919
    A3        2.27041  -0.00005   0.00000  -0.00019  -0.00019   2.27022
    A4        1.94557   0.00000   0.00000   0.00000   0.00000   1.94557
    A5        1.87752   0.00001   0.00000   0.00005   0.00005   1.87757
    D1        2.83556  -0.00001   0.00000  -0.00057  -0.00057   2.83499
    D2       -0.32217  -0.00000   0.00000  -0.00047  -0.00047  -0.32264
    D3        3.12286   0.00000   0.00000   0.00012   0.00012   3.12298
    D4        3.08898   0.00000   0.00000   0.00152   0.00152   3.09051
         Item               Value     Threshold  Converged?
 Maximum Force            0.000088     0.000450     YES
 RMS     Force            0.000039     0.000300     YES
 Maximum Displacement     0.001277     0.001800     YES
 RMS     Displacement     0.000594     0.001200     YES
 Predicted change in Energy=-2.507380D-08
 Optimization completed.
    -- Stationary point found.
                           ----------------------------
                           !   Optimized Parameters   !
                           ! (Angstroms and Degrees)  !
 --------------------------                            --------------------------
 ! Name  Definition              Value          Derivative Info.                !
 --------------------------------------------------------------------------------
 ! R1    R(1,2)                  1.4207         -DE/DX =    0.0001              !
 ! R2    R(1,5)                  1.1977         -DE/DX =   -0.0001              !
 ! R3    R(1,6)                  1.2013         -DE/DX =    0.0001              !
 ! R4    R(2,3)                  1.6238         -DE/DX =    0.0                 !
 ! R5    R(3,4)                  1.129          -DE/DX =    0.0                 !
 ! A1    A(2,1,5)              112.5019         -DE/DX =    0.0                 !
 ! A2    A(2,1,6)              117.4051         -DE/DX =    0.0                 !
 ! A3    A(5,1,6)              130.0849         -DE/DX =    0.0                 !
 ! A4    A(1,2,3)              111.4729         -DE/DX =    0.0                 !
 ! A5    A(2,3,4)              107.5741         -DE/DX =    0.0                 !
 ! D1    D(5,1,2,3)            162.4659         -DE/DX =    0.0                 !
 ! D2    D(6,1,2,3)            -18.4592         -DE/DX =    0.0                 !
 ! D3    D(2,1,5,6)            178.9266         -DE/DX =    0.0                 !
 ! D4    D(1,2,3,4)            176.9857         -DE/DX =    0.0                 !
 --------------------------------------------------------------------------------
 GradGradGradGradGradGradGradGradGradGradGradGradGradGradGradGradGradGrad

                          Input orientation:                          
 ---------------------------------------------------------------------
 Center     Atomic      Atomic             Coordinates (Angstroms)
 Number     Number       Type             X           Y           Z
 ---------------------------------------------------------------------
      1          7           0        1.037078    0.026409   -0.016961
      2          8           0       -0.213889   -0.634776   -0.144542
      3          7           0       -1.451858    0.372466    0.154903
      4          8           0       -2.408259   -0.201833   -0.018721
      5          8           0        1.950421   -0.739409    0.100613
      6          8           0        1.034659    1.227002   -0.058050
 ---------------------------------------------------------------------
                    Distance matrix (angstroms):
                    1          2          3          4          5
     1  N    0.000000
     2  O    1.420690   0.000000
     3  N    2.518749   1.623814   0.000000
     4  O    3.452889   2.240208   1.129012   0.000000
     5  O    1.197705   2.180662   3.579765   4.393327   0.000000
     6  O    1.201298   2.243339   2.637868   3.727841   2.174986
                    6
     6  O    0.000000
 Stoichiometry    N2O4
 Framework group  C1[X(N2O4)]
 Deg. of freedom    12
 Full point group                 C1      NOp   1
 Largest Abelian subgroup         C1      NOp   1
 Largest concise Abelian subgroup C1      NOp   1
                         Standard orientation:                         
 ---------------------------------------------------------------------
 Center     Atomic      Atomic             Coordinates (Angstroms)
 Number     Number       Type             X           Y           Z
 ---------------------------------------------------------------------
      1          7           0        1.037078    0.026409   -0.016961
      2          8           0       -0.213889   -0.634776   -0.144542
      3          7           0       -1.451858    0.372466    0.154903
      4          8           0       -2.408259   -0.201833   -0.018721
      5          8           0        1.950421   -0.739409    0.100613
      6          8           0        1.034659    1.227002   -0.058050
 ---------------------------------------------------------------------
 Rotational constants (GHZ):          11.8161079           2.3295716           1.9594421
 1\1\GINC-GAMBA\FOpt\RB3LYP\Gen\N2O4\IRIKURA\01-Oct-2023\0\\# b3lyp/gen
  opt freq CPHF(Grid=OneStep)\\nitrosyl nitrate, B3LYP/pcseg-2\\0,1\N,1
 .037078,0.026409,-0.016961\O,-0.213889,-0.634776,-0.144542\N,-1.451858
 ,0.372466,0.154903\O,-2.408259,-0.201833,-0.018721\O,1.950421,-0.73940
 9,0.100613\O,1.034659,1.227002,-0.05805\\Version=ES64L-G16RevB.01\Stat
 e=1-A\HF=-410.3311637\RMSD=9.276e-09\RMSF=4.720e-05\Dipole=-1.0901702,
 0.0992306,0.0518806\Quadrupole=0.1147074,-2.1053526,1.9906451,-0.26143
 41,-0.3937587,-0.1790769\PG=C01 [X(N2O4)]\\@


 ... I FELL INTO A REVERIE ... THE ATOMS WERE GAMBOLING BEFORE MY EYES
 ... I SAW HOW TWO SMALL ONES UNITED TO FORM A PAIR;
 HOW THE LARGER ONES SEIZED TWO OF THE SMALLER ONES;
 HOW STILL LARGER ONES KEPT HOLD OF THREE OR FOUR
 SMALLER ONES ... I SAW HOW THE LARGER ONES FORMED A CHAIN ...
 THIS WAS THE ORIGIN OF THE STRUCTURE THEORY.

                                   -- C.F.KEKULE VON STRADONITZ
 Job cpu time:       0 days  0 hours  1 minutes 34.0 seconds.
 Elapsed time:       0 days  0 hours  0 minutes 26.2 seconds.
 File lengths (MBytes):  RWF=     16 Int=      0 D2E=      0 Chk=      3 Scr=      1
 Normal termination of Gaussian 16 at Sun Oct  1 01:08:46 2023.
 Link1:  Proceeding to internal job step number  2.
 ------------------------------------------------------------------
 #N Geom=AllCheck Guess=TCheck SCRF=Check GenChk RB3LYP/ChkBas Freq
 ------------------------------------------------------------------
 1/10=4,29=7,30=1,38=1,40=1/1,3;
 2/12=2,40=1/2;
 3/5=7,6=2,11=2,14=-4,25=1,30=1,67=1,70=2,71=2,74=-5,82=7,116=1,140=1/1,2,3;
 4/5=101/1;
 5/5=2,38=6,98=1/2;
 8/6=4,10=90,11=11/1;
 11/6=1,8=1,9=11,15=111,16=1/1,2,10;
 10/6=1,60=-420/2;
 6/7=2,8=2,9=2,10=2,28=1/1;
 7/8=1,10=1,25=1/1,2,3,16;
 1/10=4,30=1/3;
 99//99;
 Structure from the checkpoint file:  "onono2.chk"
 -------------------------------
 nitrosyl nitrate, B3LYP/pcseg-2
 -------------------------------
 Charge =  0 Multiplicity = 1
 Redundant internal coordinates found in file.  (old form).
 N,0,1.037078,0.026409,-0.016961
 O,0,-0.213889,-0.634776,-0.144542
 N,0,-1.451858,0.372466,0.154903
 O,0,-2.408259,-0.201833,-0.018721
 O,0,1.950421,-0.739409,0.100613
 O,0,1.034659,1.227002,-0.05805
 Recover connectivity data from disk.

 GradGradGradGradGradGradGradGradGradGradGradGradGradGradGradGradGradGrad
 Berny optimization.
 Initialization pass.
                           ----------------------------
                           !    Initial Parameters    !
                           ! (Angstroms and Degrees)  !
 --------------------------                            --------------------------
 ! Name  Definition              Value          Derivative Info.                !
 --------------------------------------------------------------------------------
 ! R1    R(1,2)                  1.4207         calculate D2E/DX2 analytically  !
 ! R2    R(1,5)                  1.1977         calculate D2E/DX2 analytically  !
 ! R3    R(1,6)                  1.2013         calculate D2E/DX2 analytically  !
 ! R4    R(2,3)                  1.6238         calculate D2E/DX2 analytically  !
 ! R5    R(3,4)                  1.129          calculate D2E/DX2 analytically  !
 ! A1    A(2,1,5)              112.5019         calculate D2E/DX2 analytically  !
 ! A2    A(2,1,6)              117.4051         calculate D2E/DX2 analytically  !
 ! A3    A(5,1,6)              130.0849         calculate D2E/DX2 analytically  !
 ! A4    A(1,2,3)              111.4729         calculate D2E/DX2 analytically  !
 ! A5    A(2,3,4)              107.5741         calculate D2E/DX2 analytically  !
 ! D1    D(5,1,2,3)            162.4659         calculate D2E/DX2 analytically  !
 ! D2    D(6,1,2,3)            -18.4592         calculate D2E/DX2 analytically  !
 ! D3    D(2,1,5,6)            178.9266         calculate D2E/DX2 analytically  !
 ! D4    D(1,2,3,4)            176.9857         calculate D2E/DX2 analytically  !
 --------------------------------------------------------------------------------
 Trust Radius=3.00D-01 FncErr=1.00D-07 GrdErr=1.00D-07 EigMax=2.50D+02 EigMin=1.00D-04
 Number of steps in this run=      2 maximum allowed number of steps=      2.
 GradGradGradGradGradGradGradGradGradGradGradGradGradGradGradGradGradGrad

                          Input orientation:                          
 ---------------------------------------------------------------------
 Center     Atomic      Atomic             Coordinates (Angstroms)
 Number     Number       Type             X           Y           Z
 ---------------------------------------------------------------------
      1          7           0        1.037078    0.026409   -0.016961
      2          8           0       -0.213889   -0.634776   -0.144542
      3          7           0       -1.451858    0.372466    0.154903
      4          8           0       -2.408259   -0.201833   -0.018721
      5          8           0        1.950421   -0.739409    0.100613
      6          8           0        1.034659    1.227002   -0.058050
 ---------------------------------------------------------------------
                    Distance matrix (angstroms):
                    1          2          3          4          5
     1  N    0.000000
     2  O    1.420690   0.000000
     3  N    2.518749   1.623814   0.000000
     4  O    3.452889   2.240208   1.129012   0.000000
     5  O    1.197705   2.180662   3.579765   4.393327   0.000000
     6  O    1.201298   2.243339   2.637868   3.727841   2.174986
                    6
     6  O    0.000000
 Stoichiometry    N2O4
 Framework group  C1[X(N2O4)]
 Deg. of freedom    12
 Full point group                 C1      NOp   1
 Largest Abelian subgroup         C1      NOp   1
 Largest concise Abelian subgroup C1      NOp   1
                         Standard orientation:                         
 ---------------------------------------------------------------------
 Center     Atomic      Atomic             Coordinates (Angstroms)
 Number     Number       Type             X           Y           Z
 ---------------------------------------------------------------------
      1          7           0        1.037078    0.026409   -0.016961
      2          8           0       -0.213889   -0.634776   -0.144542
      3          7           0       -1.451858    0.372466    0.154903
      4          8           0       -2.408259   -0.201833   -0.018721
      5          8           0        1.950421   -0.739409    0.100613
      6          8           0        1.034659    1.227002   -0.058050
 ---------------------------------------------------------------------
 Rotational constants (GHZ):          11.8161079           2.3295716           1.9594421
 Basis read from chk: "onono2.chk" (5D, 7F)
 There are   210 symmetry adapted cartesian basis functions of A   symmetry.
 There are   180 symmetry adapted basis functions of A   symmetry.
   180 basis functions,   306 primitive gaussians,   210 cartesian basis functions
    23 alpha electrons       23 beta electrons
       nuclear repulsion energy       231.2664558738 Hartrees.
 NAtoms=    6 NActive=    6 NUniq=    6 SFac= 1.00D+00 NAtFMM=   60 NAOKFM=F Big=F
 Integral buffers will be    131072 words long.
 Raffenetti 2 integral format.
 Two-electron integral symmetry is turned on.
 One-electron integrals computed using PRISM.
 NBasis=   180 RedAO= T EigKep=  8.79D-04  NBF=   180
 NBsUse=   180 1.00D-06 EigRej= -1.00D+00 NBFU=   180
 Initial guess from the checkpoint file:  "onono2.chk"
 B after Tr=    -0.000000   -0.000000   -0.000000
         Rot=    1.000000    0.000000    0.000000    0.000000 Ang=   0.00 deg.
 Keep R1 ints in memory in canonical form, NReq=137387976.
 Requested convergence on RMS density matrix=1.00D-08 within 128 cycles.
 Requested convergence on MAX density matrix=1.00D-06.
 Requested convergence on             energy=1.00D-06.
 No special actions if energy rises.
 SCF Done:  E(RB3LYP) =  -410.331163680     A.U. after    2 cycles
            NFock=  2  Conv=0.96D-08     -V/T= 2.0027
 DoSCS=F DFT=T ScalE2(SS,OS)=  1.000000  1.000000
 Range of M.O.s used for correlation:     1   180
 NBasis=   180 NAE=    23 NBE=    23 NFC=     0 NFV=     0
 NROrb=    180 NOA=    23 NOB=    23 NVA=   157 NVB=   157

 **** Warning!!: The largest alpha MO coefficient is  0.19330833D+02

 Symmetrizing basis deriv contribution to polar:
 IMax=3 JMax=2 DiffMx= 0.00D+00
 G2DrvN: will do     7 centers at a time, making    1 passes.
 Calling FoFCou, ICntrl=  3107 FMM=F I1Cent=   0 AccDes= 0.00D+00.
 End of G2Drv F.D. properties file   721 does not exist.
 End of G2Drv F.D. properties file   722 does not exist.
 End of G2Drv F.D. properties file   788 does not exist.
          IDoAtm=111111
          Differentiating once with respect to electric field.
                with respect to dipole field.
          Differentiating once with respect to nuclear coordinates.
 Keep R1 ints in memory in canonical form, NReq=137391909.
          There are    21 degrees of freedom in the 1st order CPHF.  IDoFFX=6 NUNeed=     3.
     18 vectors produced by pass  0 Test12= 1.72D-14 4.76D-09 XBig12= 7.51D+01 4.15D+00.
 AX will form    18 AO Fock derivatives at one time.
     18 vectors produced by pass  1 Test12= 1.72D-14 4.76D-09 XBig12= 3.48D+01 1.60D+00.
     18 vectors produced by pass  2 Test12= 1.72D-14 4.76D-09 XBig12= 8.19D-01 2.46D-01.
     18 vectors produced by pass  3 Test12= 1.72D-14 4.76D-09 XBig12= 1.59D-02 2.58D-02.
     18 vectors produced by pass  4 Test12= 1.72D-14 4.76D-09 XBig12= 1.14D-04 1.79D-03.
     18 vectors produced by pass  5 Test12= 1.72D-14 4.76D-09 XBig12= 4.87D-07 1.05D-04.
     16 vectors produced by pass  6 Test12= 1.72D-14 4.76D-09 XBig12= 1.32D-09 6.31D-06.
      4 vectors produced by pass  7 Test12= 1.72D-14 4.76D-09 XBig12= 3.72D-12 3.07D-07.
      3 vectors produced by pass  8 Test12= 1.72D-14 4.76D-09 XBig12= 8.20D-15 1.83D-08.
 InvSVY:  IOpt=1 It=  1 EMax= 6.22D-15
 Solved reduced A of dimension   131 with    21 vectors.
 Isotropic polarizability for W=    0.000000       38.22 Bohr**3.
 End of Minotr F.D. properties file   721 does not exist.
 End of Minotr F.D. properties file   722 does not exist.
 End of Minotr F.D. properties file   788 does not exist.

 **********************************************************************

            Population analysis using the SCF Density.

 **********************************************************************

 Orbital symmetries:
       Occupied  (A) (A) (A) (A) (A) (A) (A) (A) (A) (A) (A) (A)
                 (A) (A) (A) (A) (A) (A) (A) (A) (A) (A) (A)
       Virtual   (A) (A) (A) (A) (A) (A) (A) (A) (A) (A) (A) (A)
                 (A) (A) (A) (A) (A) (A) (A) (A) (A) (A) (A) (A)
                 (A) (A) (A) (A) (A) (A) (A) (A) (A) (A) (A) (A)
                 (A) (A) (A) (A) (A) (A) (A) (A) (A) (A) (A) (A)
                 (A) (A) (A) (A) (A) (A) (A) (A) (A) (A) (A) (A)
                 (A) (A) (A) (A) (A) (A) (A) (A) (A) (A) (A) (A)
                 (A) (A) (A) (A) (A) (A) (A) (A) (A) (A) (A) (A)
                 (A) (A) (A) (A) (A) (A) (A) (A) (A) (A) (A) (A)
                 (A) (A) (A) (A) (A) (A) (A) (A) (A) (A) (A) (A)
                 (A) (A) (A) (A) (A) (A) (A) (A) (A) (A) (A) (A)
                 (A) (A) (A) (A) (A) (A) (A) (A) (A) (A) (A) (A)
                 (A) (A) (A) (A) (A) (A) (A) (A) (A) (A) (A) (A)
                 (A) (A) (A) (A) (A) (A) (A) (A) (A) (A) (A) (A)
                 (A)
 The electronic state is 1-A.
 Alpha  occ. eigenvalues --  -19.31156 -19.23359 -19.20021 -19.19927 -14.62908
 Alpha  occ. eigenvalues --  -14.57249  -1.33525  -1.30279  -1.12290  -1.06662
 Alpha  occ. eigenvalues --   -0.76375  -0.68094  -0.61359  -0.60296  -0.58435
 Alpha  occ. eigenvalues --   -0.57244  -0.55498  -0.53745  -0.38708  -0.37616
 Alpha  occ. eigenvalues --   -0.36052  -0.35284  -0.32897
 Alpha virt. eigenvalues --   -0.15827  -0.08619  -0.05267   0.03169   0.12491
 Alpha virt. eigenvalues --    0.13264   0.18816   0.20111   0.20900   0.24659
 Alpha virt. eigenvalues --    0.26578   0.27728   0.30691   0.32082   0.33956
 Alpha virt. eigenvalues --    0.34814   0.37883   0.39234   0.40717   0.42772
 Alpha virt. eigenvalues --    0.43740   0.44989   0.46481   0.47482   0.48869
 Alpha virt. eigenvalues --    0.51673   0.58022   0.70955   0.77119   0.85357
 Alpha virt. eigenvalues --    0.88126   0.94217   1.01439   1.09521   1.11843
 Alpha virt. eigenvalues --    1.16889   1.21104   1.29668   1.31325   1.38265
 Alpha virt. eigenvalues --    1.41440   1.46952   1.47939   1.48810   1.52800
 Alpha virt. eigenvalues --    1.60047   1.61263   1.63832   1.65272   1.72055
 Alpha virt. eigenvalues --    1.74310   1.78283   1.80777   1.83491   1.89612
 Alpha virt. eigenvalues --    1.91351   1.93349   1.93839   1.95474   2.00090
 Alpha virt. eigenvalues --    2.02145   2.05045   2.08687   2.11482   2.19696
 Alpha virt. eigenvalues --    2.29205   2.30718   2.33639   2.39224   2.42398
 Alpha virt. eigenvalues --    2.44628   2.47374   2.49795   2.53894   2.74578
 Alpha virt. eigenvalues --    2.78137   2.87781   2.91588   2.95521   3.03987
 Alpha virt. eigenvalues --    3.15277   3.28942   3.32778   3.38042   3.43200
 Alpha virt. eigenvalues --    3.48847   3.49593   3.61309   3.71498   3.73450
 Alpha virt. eigenvalues --    3.73607   3.77259   3.86555   3.90105   3.93261
 Alpha virt. eigenvalues --    3.94334   3.94591   3.95157   3.95635   3.99128
 Alpha virt. eigenvalues --    4.00959   4.12763   4.26886   4.35045   4.42393
 Alpha virt. eigenvalues --    4.46335   4.48396   4.52927   4.54505   4.56279
 Alpha virt. eigenvalues --    4.60805   4.73400   4.80587   4.84824   4.93478
 Alpha virt. eigenvalues --    4.97765   5.00785   5.07015   5.09023   5.13930
 Alpha virt. eigenvalues --    5.14866   5.25760   5.42676   5.54691   5.76777
 Alpha virt. eigenvalues --    5.78436   5.86374   5.89382   5.89501   5.91519
 Alpha virt. eigenvalues --    5.93732   5.99977   6.00870   6.03327   6.04168
 Alpha virt. eigenvalues --    6.13376   6.15770   6.19541   6.26743   6.27279
 Alpha virt. eigenvalues --    6.31009   6.39708   6.42670   6.44651   6.47081
 Alpha virt. eigenvalues --    6.49469   6.54105   6.57771   6.69481   6.83465
 Alpha virt. eigenvalues --    6.86347   7.13249   7.26667   7.38955   7.54899
 Alpha virt. eigenvalues --    7.97464   9.65365
          Condensed to atoms (all electrons):
               1          2          3          4          5          6
     1  N    5.324762   0.205651  -0.004526   0.002362   0.446991   0.438800
     2  O    0.205651   8.351241  -0.028468  -0.059238  -0.111813  -0.103296
     3  N   -0.004526  -0.028468   6.419961   0.349750  -0.000464  -0.013053
     4  O    0.002362  -0.059238   0.349750   7.730977  -0.000870   0.000827
     5  O    0.446991  -0.111813  -0.000464  -0.000870   8.072134  -0.126675
     6  O    0.438800  -0.103296  -0.013053   0.000827  -0.126675   8.108969
 Mulliken charges:
               1
     1  N    0.585960
     2  O   -0.254077
     3  N    0.276799
     4  O   -0.023808
     5  O   -0.279303
     6  O   -0.305572
 Sum of Mulliken charges =  -0.00000
 Mulliken charges with hydrogens summed into heavy atoms:
               1
     1  N    0.585960
     2  O   -0.254077
     3  N    0.276799
     4  O   -0.023808
     5  O   -0.279303
     6  O   -0.305572
 APT charges:
               1
     1  N    1.628433
     2  O   -0.887854
     3  N    1.066864
     4  O   -0.485898
     5  O   -0.694596
     6  O   -0.626950
 Sum of APT charges =  -0.00000
 APT charges with hydrogens summed into heavy atoms:
               1
     1  N    1.628433
     2  O   -0.887854
     3  N    1.066864
     4  O   -0.485898
     5  O   -0.694596
     6  O   -0.626950
 Electronic spatial extent (au):  <R**2>=            535.0277
 Charge=             -0.0000 electrons
 Dipole moment (field-independent basis, Debye):
    X=             -2.7709    Y=              0.2522    Z=              0.1319  Tot=              2.7855
 Quadrupole moment (field-independent basis, Debye-Ang):
   XX=            -32.4862   YY=            -35.4723   ZZ=            -29.9631
   XY=             -0.3516   XZ=             -0.5296   YZ=             -0.2409
 Traceless Quadrupole moment (field-independent basis, Debye-Ang):
   XX=              0.1543   YY=             -2.8318   ZZ=              2.6775
   XY=             -0.3516   XZ=             -0.5296   YZ=             -0.2409
 Octapole moment (field-independent basis, Debye-Ang**2):
  XXX=            -14.5260  YYY=             -1.8926  ZZZ=              0.0122  XYY=             -4.0403
  XXY=              1.8241  XXZ=             -0.5544  XZZ=             -1.0277  YZZ=             -0.0374
  YYZ=             -0.1075  XYZ=              0.8608
 Hexadecapole moment (field-independent basis, Debye-Ang**3):
 XXXX=           -472.1514 YYYY=           -116.8964 ZZZZ=            -25.2855 XXXY=              2.7963
 XXXZ=             -1.5931 YYYX=             -0.1774 YYYZ=             -0.3646 ZZZX=             -0.0241
 ZZZY=             -0.3865 XXYY=            -99.3054 XXZZ=            -76.3730 YYZZ=            -23.2691
 XXYZ=             -0.6044 YYXZ=              0.0869 ZZXY=              0.3778
 N-N= 2.312664558738D+02 E-N=-1.429190989766D+03  KE= 4.092127144965D+02
  Exact polarizability:  60.055  -3.805  35.376   0.282   0.206  19.216
 Approx polarizability:  99.959 -15.291  70.258   0.795   0.540  28.112
 Calling FoFJK, ICntrl=    100127 FMM=F ISym2X=0 I1Cent= 0 IOpClX= 0 NMat=1 NMatS=1 NMatT=0.
 Full mass-weighted force constant matrix:
 Low frequencies ---   -4.7270   -3.6121   -0.0014   -0.0009    0.0010    4.1868
 Low frequencies ---   40.3662  125.0888  210.9941
 Diagonal vibrational polarizability:
      133.7403914       7.5174552      11.6367044
 Harmonic frequencies (cm**-1), IR intensities (KM/Mole), Raman scattering
 activities (A**4/AMU), depolarization ratios for plane and unpolarized
 incident light, reduced masses (AMU), force constants (mDyne/A),
 and normal coordinates:
                      1                      2                      3
                      A                      A                      A
 Frequencies --     40.3627               125.0886               210.9941
 Red. masses --     15.2449                15.4209                15.4945
 Frc consts  --      0.0146                 0.1422                 0.4064
 IR Inten    --      0.9328                 1.2760                 0.3908
  Atom  AN      X      Y      Z        X      Y      Z        X      Y      Z
     1   7     0.03  -0.01   0.07     0.03   0.05  -0.01     0.11   0.11   0.00
     2   8     0.00  -0.05   0.60    -0.04   0.19  -0.41    -0.06   0.41   0.17
     3   7    -0.11   0.21  -0.56    -0.05   0.12  -0.52    -0.37  -0.04   0.29
     4   8    -0.04  -0.10   0.02    -0.01  -0.28   0.54    -0.09  -0.37  -0.24
     5   8     0.08  -0.02  -0.43    -0.14  -0.11   0.21    -0.13  -0.20  -0.06
     6   8     0.02  -0.01   0.23     0.21   0.05   0.12     0.51   0.10  -0.13
                      4                      5                      6
                      A                      A                      A
 Frequencies --    303.7431               489.8355               641.3913
 Red. masses --     15.1120                15.3089                15.8004
 Frc consts  --      0.8215                 2.1642                 3.8297
 IR Inten    --    274.1738               209.2780               143.3091
  Atom  AN      X      Y      Z        X      Y      Z        X      Y      Z
     1   7    -0.14   0.17   0.04    -0.22  -0.22  -0.05    -0.21   0.17  -0.06
     2   8    -0.35   0.13   0.15     0.34   0.31  -0.00     0.67  -0.26   0.06
     3   7     0.59  -0.20  -0.05    -0.13   0.46   0.12    -0.01  -0.14  -0.03
     4   8     0.41  -0.12  -0.06     0.43  -0.22  -0.05    -0.10   0.12   0.03
     5   8    -0.42  -0.10  -0.07    -0.07  -0.15   0.02    -0.48  -0.17  -0.03
     6   8    -0.03   0.12  -0.01    -0.39  -0.15  -0.02     0.11   0.29   0.01
                      7                      8                      9
                      A                      A                      A
 Frequencies --    771.7317               806.4021               940.1106
 Red. masses --     14.6624                15.0458                15.1978
 Frc consts  --      5.1450                 5.7646                 7.9139
 IR Inten    --     34.8828               193.0151                39.8285
  Atom  AN      X      Y      Z        X      Y      Z        X      Y      Z
     1   7     0.11   0.06   0.79     0.50   0.13  -0.40    -0.33  -0.22  -0.14
     2   8     0.12   0.22  -0.15     0.04   0.26   0.14     0.22   0.52   0.12
     3   7     0.06  -0.15  -0.08     0.07  -0.20  -0.05     0.20  -0.41  -0.12
     4   8    -0.14   0.06   0.04    -0.19   0.07   0.01    -0.22   0.12   0.04
     5   8     0.07  -0.21  -0.24     0.07  -0.41   0.15     0.03   0.25   0.02
     6   8    -0.21   0.01  -0.27    -0.41   0.14   0.09     0.09  -0.35   0.05
                     10                     11                     12
                      A                      A                      A
 Frequencies --   1324.4869              1700.5759              1932.5703
 Red. masses --     15.2716                14.5768                14.8724
 Frc consts  --     15.7844                24.8374                32.7267
 IR Inten    --    306.7729               422.2077               391.8240
  Atom  AN      X      Y      Z        X      Y      Z        X      Y      Z
     1   7    -0.52  -0.27  -0.04    -0.37   0.75  -0.06     0.05   0.04   0.00
     2   8    -0.09   0.04   0.01     0.01  -0.06  -0.00    -0.06   0.04   0.02
     3   7     0.03  -0.09  -0.03     0.00   0.03   0.01    -0.58  -0.45  -0.14
     4   8     0.02   0.03   0.01     0.01  -0.01  -0.01     0.55   0.34   0.10
     5   8     0.46  -0.31   0.06     0.29  -0.26   0.04    -0.01  -0.00  -0.00
     6   8     0.05   0.56  -0.01     0.02  -0.36   0.01    -0.01  -0.03   0.00

 -------------------
 - Thermochemistry -
 -------------------
 Temperature   298.150 Kelvin.  Pressure   1.00000 Atm.
 Atom     1 has atomic number  7 and mass  14.00307
 Atom     2 has atomic number  8 and mass  15.99491
 Atom     3 has atomic number  7 and mass  14.00307
 Atom     4 has atomic number  8 and mass  15.99491
 Atom     5 has atomic number  8 and mass  15.99491
 Atom     6 has atomic number  8 and mass  15.99491
 Molecular mass:    91.98581 amu.
 Principal axes and moments of inertia in atomic units:
                           1         2         3
     Eigenvalues --   152.73567 774.70948 921.04848
           X            1.00000   0.00002   0.00001
           Y           -0.00002   1.00000  -0.00001
           Z           -0.00001   0.00001   1.00000
 This molecule is an asymmetric top.
 Rotational symmetry number  1.
 Rotational temperatures (Kelvin)      0.56708     0.11180     0.09404
 Rotational constants (GHZ):          11.81611     2.32957     1.95944
 Zero-point vibrational energy      55550.3 (Joules/Mol)
                                   13.27685 (Kcal/Mol)
 Warning -- explicit consideration of   5 degrees of freedom as
           vibrations may cause significant error
 Vibrational temperatures:     58.07   179.97   303.57   437.02   704.76
          (Kelvin)            922.82  1110.35  1160.23  1352.61  1905.64
                             2446.75  2780.54
 
 Zero-point correction=                           0.021158 (Hartree/Particle)
 Thermal correction to Energy=                    0.027086
 Thermal correction to Enthalpy=                  0.028030
 Thermal correction to Gibbs Free Energy=        -0.009508
 Sum of electronic and zero-point Energies=           -410.310006
 Sum of electronic and thermal Energies=              -410.304078
 Sum of electronic and thermal Enthalpies=            -410.303134
 Sum of electronic and thermal Free Energies=         -410.340671
 
                     E (Thermal)             CV                S
                      KCal/Mol        Cal/Mol-Kelvin    Cal/Mol-Kelvin
 Total                   16.997             17.554             79.005
 Electronic               0.000              0.000              0.000
 Translational            0.889              2.981             39.469
 Rotational               0.889              2.981             26.191
 Vibrational             15.219             11.592             13.345
 Vibration     1          0.594              1.981              5.241
 Vibration     2          0.610              1.928              3.020
 Vibration     3          0.643              1.824              2.035
 Vibration     4          0.695              1.667              1.396
 Vibration     5          0.846              1.273              0.684
                       Q            Log10(Q)             Ln(Q)
 Total Bot       0.236154D+05          4.373195         10.069654
 Total V=0       0.127408D+15         14.105196         32.478413
 Vib (Bot)       0.576280D-08         -8.239366        -18.971842
 Vib (Bot)    1  0.512596D+01          0.709775          1.634317
 Vib (Bot)    2  0.163174D+01          0.212650          0.489644
 Vib (Bot)    3  0.940958D+00         -0.026430         -0.060856
 Vib (Bot)    4  0.624784D+00         -0.204270         -0.470349
 Vib (Bot)    5  0.338541D+00         -0.470388         -1.083109
 Vib (V=0)       0.310910D+02          1.492634          3.436917
 Vib (V=0)    1  0.565029D+01          0.752070          1.731706
 Vib (V=0)    2  0.220662D+01          0.343728          0.791463
 Vib (V=0)    3  0.156555D+01          0.194668          0.448239
 Vib (V=0)    4  0.130022D+01          0.114018          0.262535
 Vib (V=0)    5  0.110383D+01          0.042902          0.098786
 Electronic      0.100000D+01          0.000000          0.000000
 Translational   0.346765D+08          7.540035         17.361572
 Rotational      0.118175D+06          5.072527         11.679924
 ***** Axes restored to original set *****
 -------------------------------------------------------------------
 Center     Atomic                   Forces (Hartrees/Bohr)
 Number     Number              X              Y              Z
 -------------------------------------------------------------------
      1        7           0.000083434   -0.000112508    0.000007819
      2        8          -0.000072414   -0.000018970   -0.000007670
      3        7           0.000028696   -0.000004542    0.000000753
      4        8          -0.000022196   -0.000007388   -0.000000072
      5        8          -0.000046711    0.000082332   -0.000001505
      6        8           0.000029192    0.000061076    0.000000677
 -------------------------------------------------------------------
 Cartesian Forces:  Max     0.000112508 RMS     0.000047305
 FormGI is forming the generalized inverse of G from B-inverse, IUseBI=4.

 GradGradGradGradGradGradGradGradGradGradGradGradGradGradGradGradGradGrad
 Berny optimization.
 Internal  Forces:  Max     0.000088333 RMS     0.000038846
 Search for a local minimum.
 Step number   1 out of a maximum of    2
 All quantities printed in internal units (Hartrees-Bohrs-Radians)
 Second derivative matrix not updated -- analytic derivatives used.
 The second derivative matrix:
                          R1        R2        R3        R4        R5
           R1           0.20442
           R2           0.07730   0.72233
           R3           0.07124   0.09894   0.70393
           R4           0.04145  -0.01192  -0.01451   0.07790
           R5          -0.02410   0.01400   0.01435   0.12317   1.07733
           A1           0.02949   0.02452  -0.05792  -0.01168   0.02377
           A2           0.03187  -0.05628   0.02174   0.00169  -0.00637
           A3          -0.06137   0.03177   0.03618   0.00998  -0.01738
           A4           0.03608   0.01070  -0.00163   0.01142   0.02770
           A5           0.00398   0.01245   0.00512   0.02399   0.05165
           D1          -0.00143   0.00218   0.00012  -0.00166  -0.00274
           D2          -0.00254   0.00272   0.00089  -0.00241  -0.00169
           D3          -0.00001  -0.00042   0.00054  -0.00101   0.00142
           D4          -0.00393   0.00062   0.00277   0.00045  -0.00089
                          A1        A2        A3        A4        A5
           A1           0.21546
           A2          -0.10868   0.22518
           A3          -0.10677  -0.11652   0.22332
           A4           0.00129   0.02193  -0.02326   0.21817
           A5           0.01947  -0.01276  -0.00669   0.07505   0.41034
           D1           0.00640  -0.00622  -0.00056  -0.00818   0.00217
           D2           0.00584  -0.00913   0.00363  -0.01088   0.00316
           D3          -0.00003   0.00065   0.00021  -0.00256   0.00112
           D4           0.00539  -0.00594   0.00052  -0.00600   0.00476
                          D1        D2        D3        D4
           D1           0.01289
           D2          -0.00891   0.01054
           D3          -0.02535   0.02243   0.05545
           D4           0.00055  -0.00115  -0.00204   0.01720
 ITU=  0
     Eigenvalues ---    0.00104   0.01649   0.03886   0.07622   0.15769
     Eigenvalues ---    0.19471   0.30706   0.37393   0.43846   0.63538
     Eigenvalues ---    0.83435   1.10029
 Angle between quadratic step and forces=  82.98 degrees.
 Linear search not attempted -- first point.
 Iteration  1 RMS(Cart)=  0.00216100 RMS(Int)=  0.00000563
 Iteration  2 RMS(Cart)=  0.00000595 RMS(Int)=  0.00000000
 Iteration  3 RMS(Cart)=  0.00000000 RMS(Int)=  0.00000000
 Variable       Old X    -DE/DX   Delta X   Delta X   Delta X     New X
                                 (Linear)    (Quad)   (Total)
    R1        2.68472   0.00007   0.00000   0.00062   0.00062   2.68533
    R2        2.26333  -0.00009   0.00000  -0.00020  -0.00020   2.26313
    R3        2.27012   0.00006   0.00000   0.00006   0.00006   2.27018
    R4        3.06856  -0.00001   0.00000  -0.00093  -0.00093   3.06764
    R5        2.13352   0.00002   0.00000   0.00012   0.00012   2.13364
    A1        1.96353   0.00003   0.00000   0.00021   0.00021   1.96374
    A2        2.04911   0.00002   0.00000  -0.00023  -0.00023   2.04887
    A3        2.27041  -0.00005   0.00000   0.00002   0.00002   2.27044
    A4        1.94557   0.00000   0.00000  -0.00059  -0.00059   1.94498
    A5        1.87752   0.00001   0.00000   0.00023   0.00023   1.87776
    D1        2.83556  -0.00001   0.00000  -0.00529  -0.00529   2.83028
    D2       -0.32217  -0.00000   0.00000  -0.00546  -0.00546  -0.32763
    D3        3.12286   0.00000   0.00000  -0.00020  -0.00020   3.12266
    D4        3.08898   0.00000   0.00000  -0.00026  -0.00026   3.08872
         Item               Value     Threshold  Converged?
 Maximum Force            0.000088     0.000450     YES
 RMS     Force            0.000039     0.000300     YES
 Maximum Displacement     0.005079     0.001800     NO 
 RMS     Displacement     0.002161     0.001200     NO 
 Predicted change in Energy=-6.863954D-08
                           ----------------------------
                           ! Non-Optimized Parameters !
                           ! (Angstroms and Degrees)  !
 --------------------------                            --------------------------
 ! Name  Definition              Value          Derivative Info.                !
 --------------------------------------------------------------------------------
 ! R1    R(1,2)                  1.421          -DE/DX =    0.0001              !
 ! R2    R(1,5)                  1.1976         -DE/DX =   -0.0001              !
 ! R3    R(1,6)                  1.2013         -DE/DX =    0.0001              !
 ! R4    R(2,3)                  1.6233         -DE/DX =    0.0                 !
 ! R5    R(3,4)                  1.1291         -DE/DX =    0.0                 !
 ! A1    A(2,1,5)              112.5138         -DE/DX =    0.0                 !
 ! A2    A(2,1,6)              117.3917         -DE/DX =    0.0                 !
 ! A3    A(5,1,6)              130.0864         -DE/DX =    0.0                 !
 ! A4    A(1,2,3)              111.4391         -DE/DX =    0.0                 !
 ! A5    A(2,3,4)              107.5875         -DE/DX =    0.0                 !
 ! D1    D(5,1,2,3)            162.1629         -DE/DX =    0.0                 !
 ! D2    D(6,1,2,3)            -18.7718         -DE/DX =    0.0                 !
 ! D3    D(2,1,5,6)            178.9152         -DE/DX =    0.0                 !
 ! D4    D(1,2,3,4)            176.9707         -DE/DX =    0.0                 !
 --------------------------------------------------------------------------------
 GradGradGradGradGradGradGradGradGradGradGradGradGradGradGradGradGradGrad


 ----------------------------------------------------------------------

 Electric dipole moment (input orientation):
 (Debye = 10**-18 statcoulomb cm , SI units = C m)
                  (au)            (Debye)         (10**-30 SI)
   Tot        0.109591D+01      0.278551D+01      0.929148D+01
   x         -0.109017D+01     -0.277094D+01     -0.924285D+01
   y          0.992277D-01      0.252212D+00      0.841287D+00
   z          0.518809D-01      0.131868D+00      0.439864D+00

 Dipole polarizability, Alpha (input orientation).
 (esu units = cm**3 , SI units = C**2 m**2 J**-1)
 Alpha(0;0):
               (au)            (10**-24 esu)      (10**-40 SI)
   iso        0.382159D+02      0.566301D+01      0.630095D+01
   aniso      0.362333D+02      0.536922D+01      0.597406D+01
   xx         0.600555D+02      0.889930D+01      0.990181D+01
   yx        -0.380512D+01     -0.563860D+00     -0.627379D+00
   yy         0.353764D+02      0.524225D+01      0.583279D+01
   zx         0.282165D+00      0.418126D-01      0.465228D-01
   zy         0.206201D+00      0.305558D-01      0.339979D-01
   zz         0.192158D+02      0.284749D+01      0.316826D+01

 ----------------------------------------------------------------------

 Dipole orientation:
     7          0.08052634          0.22095722         -1.94653575
     8         -0.39717406         -1.20019153          0.28053325
     7          0.20036294          0.43589707          2.80684356
     8         -0.31906118         -0.76659687          4.49092408
     8          0.27230852         -1.08658700         -3.78398696
     8          0.19814708          2.47862723         -1.74023889

 Electric dipole moment (dipole orientation):
 (Debye = 10**-18 statcoulomb cm , SI units = C m)
                  (au)            (Debye)         (10**-30 SI)
   Tot        0.109591D+01      0.278551D+01      0.929148D+01
   x          0.000000D+00      0.000000D+00      0.000000D+00
   y          0.000000D+00      0.000000D+00      0.000000D+00
   z          0.109591D+01      0.278551D+01      0.929148D+01

 Dipole polarizability, Alpha (dipole orientation).
 (esu units = cm**3 , SI units = C**2 m**2 J**-1)
 Alpha(0;0):
               (au)            (10**-24 esu)      (10**-40 SI)
   iso        0.382159D+02      0.566301D+01      0.630095D+01
   aniso      0.362333D+02      0.536922D+01      0.597406D+01
   xx         0.194898D+02      0.288809D+01      0.321343D+01
   yx         0.156090D+01      0.231301D+00      0.257357D+00
   yy         0.347357D+02      0.514730D+01      0.572714D+01
   zx        -0.206798D+01     -0.306443D+00     -0.340964D+00
   zy         0.171851D+01      0.254657D+00      0.283344D+00
   zz         0.604223D+02      0.895365D+01      0.996228D+01

 ----------------------------------------------------------------------
 1\1\GINC-GAMBA\Freq\RB3LYP\Gen\N2O4\IRIKURA\01-Oct-2023\0\\#N Geom=All
 Check Guess=TCheck SCRF=Check GenChk RB3LYP/ChkBas Freq\\nitrosyl nitr
 ate, B3LYP/pcseg-2\\0,1\N,1.037078,0.026409,-0.016961\O,-0.213889,-0.6
 34776,-0.144542\N,-1.451858,0.372466,0.154903\O,-2.408259,-0.201833,-0
 .018721\O,1.950421,-0.739409,0.100613\O,1.034659,1.227002,-0.05805\\Ve
 rsion=ES64L-G16RevB.01\State=1-A\HF=-410.3311637\RMSD=9.568e-09\RMSF=4
 .731e-05\ZeroPoint=0.021158\Thermal=0.0270859\Dipole=-1.0901706,0.0992
 277,0.0518809\DipoleDeriv=2.6019058,-0.1753899,0.1397275,0.5215306,1.9
 545659,-0.1275499,0.269744,-0.0947436,0.3288277,-2.0509052,-0.0962223,
[...]
 ! R2    R(1,5)                  1.1977                                         !
 ! R3    R(1,6)                  1.2013                                         !
 ! R4    R(2,3)                  1.6238                                         !
 ! R5    R(3,4)                  1.129                                          !
 ! A1    A(2,1,5)              112.5019                                         !
 ! A2    A(2,1,6)              117.4051                                         !
 ! A3    A(5,1,6)              130.0849                                         !
 ! A4    A(1,2,3)              111.4729                                         !
 ! A5    A(2,3,4)              107.5741                                         !
 ! D1    D(5,1,2,3)            162.4659                                         !
 ! D2    D(6,1,2,3)            -18.4592                                         !
 ! D3    D(2,1,5,6)            178.9266                                         !
 ! D4    D(1,2,3,4)            176.9857                                         !
 --------------------------------------------------------------------------------
                          Input orientation:                          
 ---------------------------------------------------------------------
 Center     Atomic      Atomic             Coordinates (Angstroms)
 Number     Number       Type             X           Y           Z
 ---------------------------------------------------------------------
      1          7           0        1.037078    0.026409   -0.016961
      2          8           0       -0.213889   -0.634776   -0.144542
      3          7           0       -1.451858    0.372466    0.154903
      4          8           0       -2.408259   -0.201833   -0.018721
      5          8           0        1.950421   -0.739409    0.100613
      6          8           0        1.034659    1.227002   -0.058050
 ---------------------------------------------------------------------
                    Distance matrix (angstroms):
                    1          2          3          4          5
     1  N    0.000000
     2  O    1.420690   0.000000
     3  N    2.518749   1.623814   0.000000
     4  O    3.452889   2.240208   1.129012   0.000000
     5  O    1.197705   2.180662   3.579765   4.393327   0.000000
     6  O    1.201298   2.243339   2.637868   3.727841   2.174986
                    6
     6  O    0.000000
 Stoichiometry    N2O4
 Framework group  C1[X(N2O4)]
 Deg. of freedom    12
 Full point group                 C1      NOp   1
 Largest Abelian subgroup         C1      NOp   1
 Largest concise Abelian subgroup C1      NOp   1
                         Standard orientation:                         
 ---------------------------------------------------------------------
 Center     Atomic      Atomic             Coordinates (Angstroms)
 Number     Number       Type             X           Y           Z
 ---------------------------------------------------------------------
      1          7           0        1.037078    0.026409   -0.016961
      2          8           0       -0.213889   -0.634776   -0.144542
      3          7           0       -1.451858    0.372466    0.154903
      4          8           0       -2.408259   -0.201833   -0.018721
      5          8           0        1.950421   -0.739409    0.100613
      6          8           0        1.034659    1.227002   -0.058050
 ---------------------------------------------------------------------
 Rotational constants (GHZ):          11.8161079           2.3295716           1.9594421
 General basis read from cards:  (5D, 7F)
 There are   372 symmetry adapted cartesian basis functions of A   symmetry.
 There are   318 symmetry adapted basis functions of A   symmetry.
   318 basis functions,   468 primitive gaussians,   372 cartesian basis functions
    23 alpha electrons       23 beta electrons
       nuclear repulsion energy       231.2664558738 Hartrees.
 NAtoms=    6 NActive=    6 NUniq=    6 SFac= 1.00D+00 NAtFMM=   60 NAOKFM=F Big=F
 Integral buffers will be    131072 words long.
 Raffenetti 2 integral format.
 Two-electron integral symmetry is turned on.
 One-electron integrals computed using PRISM.
 NBasis=   318 RedAO= T EigKep=  1.93D-04  NBF=   318
 NBsUse=   318 1.00D-06 EigRej= -1.00D+00 NBFU=   318
 Initial guess from the checkpoint file:  "onono2.chk"
 B after Tr=     0.000000    0.000000   -0.000000
         Rot=    1.000000    0.000000    0.000000    0.000000 Ang=   0.00 deg.
 Requested convergence on RMS density matrix=1.00D-08 within 128 cycles.
 Requested convergence on MAX density matrix=1.00D-06.
 Requested convergence on             energy=1.00D-06.
 No special actions if energy rises.
 SCF Done:  E(ROHF) =  -408.231846021     A.U. after   16 cycles
            NFock= 16  Conv=0.75D-08     -V/T= 2.0018
 <Sx>= 0.0000 <Sy>= 0.0000 <Sz>= 0.0000 <S**2>=-0.0000 S=-0.0000
 <L.S>=  0.00000000000    
 Annihilation of the first spin contaminant:
 S**2 before annihilation    -0.0000,   after    -0.0000

 **********************************************************************

            Population analysis using the SCF Density.

 **********************************************************************

 Orbital symmetries:
       Occupied  (A) (A) (A) (A) (A) (A) (A) (A) (A) (A) (A) (A)
                 (A) (A) (A) (A) (A) (A) (A) (A) (A) (A) (A)
       Virtual   (A) (A) (A) (A) (A) (A) (A) (A) (A) (A) (A) (A)
                 (A) (A) (A) (A) (A) (A) (A) (A) (A) (A) (A) (A)
                 (A) (A) (A) (A) (A) (A) (A) (A) (A) (A) (A) (A)
                 (A) (A) (A) (A) (A) (A) (A) (A) (A) (A) (A) (A)
                 (A) (A) (A) (A) (A) (A) (A) (A) (A) (A) (A) (A)
                 (A) (A) (A) (A) (A) (A) (A) (A) (A) (A) (A) (A)
                 (A) (A) (A) (A) (A) (A) (A) (A) (A) (A) (A) (A)
                 (A) (A) (A) (A) (A) (A) (A) (A) (A) (A) (A) (A)
                 (A) (A) (A) (A) (A) (A) (A) (A) (A) (A) (A) (A)
                 (A) (A) (A) (A) (A) (A) (A) (A) (A) (A) (A) (A)
                 (A) (A) (A) (A) (A) (A) (A) (A) (A) (A) (A) (A)
                 (A) (A) (A) (A) (A) (A) (A) (A) (A) (A) (A) (A)
                 (A) (A) (A) (A) (A) (A) (A) (A) (A) (A) (A) (A)
                 (A) (A) (A) (A) (A) (A) (A) (A) (A) (A) (A) (A)
                 (A) (A) (A) (A) (A) (A) (A) (A) (A) (A) (A) (A)
                 (A) (A) (A) (A) (A) (A) (A) (A) (A) (A) (A) (A)
                 (A) (A) (A) (A) (A) (A) (A) (A) (A) (A) (A) (A)
                 (A) (A) (A) (A) (A) (A) (A) (A) (A) (A) (A) (A)
                 (A) (A) (A) (A) (A) (A) (A) (A) (A) (A) (A) (A)
                 (A) (A) (A) (A) (A) (A) (A) (A) (A) (A) (A) (A)
                 (A) (A) (A) (A) (A) (A) (A) (A) (A) (A) (A) (A)
                 (A) (A) (A) (A) (A) (A) (A) (A) (A) (A) (A) (A)
                 (A) (A) (A) (A) (A) (A) (A) (A) (A) (A) (A) (A)
                 (A) (A) (A) (A) (A) (A) (A) (A) (A) (A) (A) (A)
                 (A) (A) (A) (A) (A) (A) (A)
 The electronic state is 1-A.
 Alpha  occ. eigenvalues --  -20.77120 -20.68018 -20.63290 -20.63256 -15.92697
 Alpha  occ. eigenvalues --  -15.88057  -1.71757  -1.67272  -1.45637  -1.40268
 Alpha  occ. eigenvalues --   -1.02797  -0.92317  -0.83295  -0.80534  -0.78507
 Alpha  occ. eigenvalues --   -0.76582  -0.74951  -0.73913  -0.56801  -0.54531
 Alpha  occ. eigenvalues --   -0.52666  -0.49471  -0.48769
 Alpha virt. eigenvalues --    0.02278   0.05632   0.07825   0.08198   0.08273
 Alpha virt. eigenvalues --    0.09560   0.11432   0.11597   0.13092   0.14015
 Alpha virt. eigenvalues --    0.16097   0.16405   0.18079   0.19285   0.20117
 Alpha virt. eigenvalues --    0.20302   0.20848   0.22547   0.24352   0.24573
 Alpha virt. eigenvalues --    0.25255   0.26041   0.26963   0.30235   0.32140
 Alpha virt. eigenvalues --    0.34124   0.35386   0.36179   0.49142   0.51430
 Alpha virt. eigenvalues --    0.52858   0.54900   0.58870   0.61138   0.62685
 Alpha virt. eigenvalues --    0.65288   0.66378   0.67288   0.69630   0.70795
 Alpha virt. eigenvalues --    0.72246   0.73241   0.75070   0.77251   0.78023
 Alpha virt. eigenvalues --    0.79118   0.80972   0.81484   0.82721   0.84346
 Alpha virt. eigenvalues --    0.85825   0.87892   0.91624   0.99773   1.02527
 Alpha virt. eigenvalues --    1.04959   1.12216   1.14474   1.16503   1.19974
 Alpha virt. eigenvalues --    1.22898   1.23833   1.27152   1.28923   1.30263
 Alpha virt. eigenvalues --    1.33997   1.39266   1.46396   1.46900   1.49804
 Alpha virt. eigenvalues --    1.50276   1.54584   1.58967   1.62651   1.66035
 Alpha virt. eigenvalues --    1.68081   1.69086   1.71199   1.74812   1.77765
 Alpha virt. eigenvalues --    1.78612   1.81963   1.83843   1.86170   1.88385
 Alpha virt. eigenvalues --    1.93841   1.96610   1.98331   2.00004   2.00799
 Alpha virt. eigenvalues --    2.04421   2.10513   2.11325   2.12939   2.16032
 Alpha virt. eigenvalues --    2.16479   2.18275   2.20833   2.24852   2.26182
 Alpha virt. eigenvalues --    2.29378   2.31047   2.32445   2.33340   2.35223
 Alpha virt. eigenvalues --    2.41903   2.43199   2.45355   2.47755   2.52011
 Alpha virt. eigenvalues --    2.54119   2.55459   2.60573   2.61662   2.64765
 Alpha virt. eigenvalues --    2.66788   2.72086   2.73887   2.75137   2.79403
 Alpha virt. eigenvalues --    2.80565   2.83112   2.89367   2.95501   2.96061
 Alpha virt. eigenvalues --    3.03371   3.09436   3.15590   3.19313   3.24756
 Alpha virt. eigenvalues --    3.29116   3.30173   3.32280   3.35681   3.36728
 Alpha virt. eigenvalues --    3.42470   3.46267   3.50946   3.56789   3.57881
 Alpha virt. eigenvalues --    3.65275   3.67487   3.68696   3.71346   3.72490
 Alpha virt. eigenvalues --    3.75379   3.78510   3.79163   3.81814   3.83973
 Alpha virt. eigenvalues --    3.85243   3.85523   3.88185   3.91565   3.94709
 Alpha virt. eigenvalues --    3.97699   4.01428   4.02663   4.04989   4.10557
 Alpha virt. eigenvalues --    4.14818   4.17819   4.20696   4.26002   4.29294
 Alpha virt. eigenvalues --    4.36703   4.38021   4.40928   4.46150   4.49819
 Alpha virt. eigenvalues --    4.51162   4.53399   4.68505   4.76498   4.78174
 Alpha virt. eigenvalues --    4.95389   5.49934   5.54819   5.83266   5.90153
 Alpha virt. eigenvalues --    5.92610   5.94383   5.95189   5.98106   6.00581
 Alpha virt. eigenvalues --    6.01934   6.05041   6.07293   6.10364   6.15096
 Alpha virt. eigenvalues --    6.22499   6.32402   6.54268   6.59096   6.62613
 Alpha virt. eigenvalues --    6.72060   6.77043   6.83984   6.86112   6.88981
 Alpha virt. eigenvalues --    6.93917   6.95649   6.98805   6.99757   7.02853
 Alpha virt. eigenvalues --    7.04605   7.05855   7.10211   7.13060   7.16098
 Alpha virt. eigenvalues --    7.18158   7.20999   7.27522   7.29345   7.30997
 Alpha virt. eigenvalues --    7.43772   7.47416   7.59204   7.60217   7.67790
 Alpha virt. eigenvalues --    7.78786   7.95980   8.07369   8.13175   8.22197
 Alpha virt. eigenvalues --    8.30222   8.96690   9.18359   9.39537   9.71813
 Alpha virt. eigenvalues --   10.04971  10.06691  10.08892  10.10797  10.12512
 Alpha virt. eigenvalues --   10.21699  10.24123  10.33233  10.36476  10.37668
 Alpha virt. eigenvalues --   10.45919  10.48123  10.51965  10.56823  10.66360
 Alpha virt. eigenvalues --   10.76689  10.84844  10.91076  10.98455  11.08437
 Alpha virt. eigenvalues --   11.12965  11.15034  11.20634  11.23652  11.26519
 Alpha virt. eigenvalues --   11.29064  11.35713  11.44472  11.46850  11.57269
 Alpha virt. eigenvalues --   11.60271  11.62224  11.64349  11.85547  11.88915
 Alpha virt. eigenvalues --   11.94523  12.51981  12.58331  12.98339  13.18242
 Alpha virt. eigenvalues --   13.35098  29.18466  29.30286  29.45208  30.05517
 Alpha virt. eigenvalues --   30.29987  30.78306  32.16818  32.84259  37.34464
 Alpha virt. eigenvalues --   37.54815  37.59674  37.65967  37.70391  37.75653
 Alpha virt. eigenvalues --   37.93722  37.98443  38.17639  38.22471  38.39865
 Alpha virt. eigenvalues --   38.44441  42.57067  42.83752  42.93914  43.35476
          Condensed to atoms (all electrons):
               1          2          3          4          5          6
     1  N    5.356796   0.231088   0.022736  -0.001146   0.394555   0.387540
     2  O    0.231088   8.172937   0.061775  -0.067013  -0.080105  -0.072635
     3  N    0.022736   0.061775   6.000494   0.506315  -0.001028  -0.020313
     4  O   -0.001146  -0.067013   0.506315   7.665747   0.000338   0.000396
     5  O    0.394555  -0.080105  -0.001028   0.000338   8.132384  -0.114967
     6  O    0.387540  -0.072635  -0.020313   0.000396  -0.114967   8.176567
          Atomic-Atomic Spin Densities.
               1          2          3          4          5          6
     1  N    0.000000   0.000000   0.000000   0.000000   0.000000   0.000000
     2  O    0.000000   0.000000   0.000000   0.000000   0.000000   0.000000
     3  N    0.000000   0.000000   0.000000   0.000000   0.000000   0.000000
     4  O    0.000000   0.000000   0.000000   0.000000   0.000000   0.000000
     5  O    0.000000   0.000000   0.000000   0.000000   0.000000   0.000000
     6  O    0.000000   0.000000   0.000000   0.000000   0.000000   0.000000
 Mulliken charges and spin densities:
               1          2
     1  N    0.608430   0.000000
     2  O   -0.246047   0.000000
     3  N    0.430021   0.000000
     4  O   -0.104639   0.000000
     5  O   -0.331177   0.000000
     6  O   -0.356588   0.000000
 Sum of Mulliken charges =  -0.00000   0.00000
 Mulliken charges and spin densities with hydrogens summed into heavy atoms:
               1          2
     1  N    0.608430   0.000000
     2  O   -0.246047   0.000000
     3  N    0.430021   0.000000
     4  O   -0.104639   0.000000
     5  O   -0.331177   0.000000
     6  O   -0.356588   0.000000
 Electronic spatial extent (au):  <R**2>=            535.0880
 Charge=             -0.0000 electrons
 Dipole moment (field-independent basis, Debye):
    X=             -3.4204    Y=              0.3859    Z=              0.2120  Tot=              3.4486
 Quadrupole moment (field-independent basis, Debye-Ang):
   XX=            -32.4887   YY=            -35.5905   ZZ=            -29.9235
   XY=             -0.5684   XZ=             -0.6301   YZ=             -0.2021
 Traceless Quadrupole moment (field-independent basis, Debye-Ang):
   XX=              0.1788   YY=             -2.9229   ZZ=              2.7441
   XY=             -0.5684   XZ=             -0.6301   YZ=             -0.2021
 Octapole moment (field-independent basis, Debye-Ang**2):
  XXX=            -16.8901  YYY=             -1.9262  ZZZ=              0.1034  XYY=             -4.7000
  XXY=              1.8944  XXZ=             -0.5208  XZZ=             -1.3896  YZZ=             -0.0305
  YYZ=             -0.0829  XYZ=              0.8037
 Hexadecapole moment (field-independent basis, Debye-Ang**3):
 XXXX=           -468.0838 YYYY=           -114.3398 ZZZZ=            -24.3949 XXXY=              3.3902
 XXXZ=             -1.4794 YYYX=             -0.6142 YYYZ=             -0.3542 ZZZX=             -0.1091
 ZZZY=             -0.2842 XXYY=            -98.0191 XXZZ=            -75.8444 YYZZ=            -22.8874
 XXYZ=             -0.4294 YYXZ=              0.0826 ZZXY=              0.3001
 N-N= 2.312664558738D+02 E-N=-1.426432643892D+03  KE= 4.074861477888D+02
                          Isotropic Fermi Contact Couplings
        Atom                 a.u.       MegaHertz       Gauss      10(-4) cm-1
     1  N(14)              0.00000       0.00000       0.00000       0.00000
     2  O(17)              0.00000      -0.00000      -0.00000      -0.00000
     3  N(14)              0.00000       0.00000       0.00000       0.00000
     4  O(17)              0.00000      -0.00000      -0.00000      -0.00000
     5  O(17)              0.00000      -0.00000      -0.00000      -0.00000
     6  O(17)              0.00000      -0.00000      -0.00000      -0.00000
 --------------------------------------------------------
       Center         ----  Spin Dipole Couplings  ----
                      3XX-RR        3YY-RR        3ZZ-RR
 --------------------------------------------------------
     1   Atom        0.000000      0.000000      0.000000
     2   Atom        0.000000      0.000000      0.000000
     3   Atom        0.000000      0.000000      0.000000
     4   Atom        0.000000      0.000000      0.000000
     5   Atom        0.000000      0.000000      0.000000
     6   Atom        0.000000      0.000000      0.000000
 --------------------------------------------------------
                        XY            XZ            YZ
 --------------------------------------------------------
     1   Atom        0.000000      0.000000      0.000000
     2   Atom        0.000000      0.000000      0.000000
     3   Atom        0.000000      0.000000      0.000000
     4   Atom        0.000000      0.000000      0.000000
     5   Atom        0.000000      0.000000      0.000000
     6   Atom        0.000000      0.000000      0.000000
 --------------------------------------------------------


 ---------------------------------------------------------------------------------
              Anisotropic Spin Dipole Couplings in Principal Axis System
 ---------------------------------------------------------------------------------

       Atom             a.u.   MegaHertz   Gauss  10(-4) cm-1        Axes

              Baa     0.0000     0.000     0.000     0.000  1.0000  0.0000  0.0000
     1 N(14)  Bbb     0.0000     0.000     0.000     0.000 -0.0000  1.0000  0.0000
              Bcc     0.0000     0.000     0.000     0.000  0.0000  0.0000  1.0000
 
              Baa     0.0000    -0.000    -0.000    -0.000  1.0000  0.0000  0.0000
     2 O(17)  Bbb     0.0000    -0.000    -0.000    -0.000 -0.0000  1.0000  0.0000
              Bcc     0.0000    -0.000    -0.000    -0.000  0.0000  0.0000  1.0000
 
              Baa     0.0000     0.000     0.000     0.000  1.0000  0.0000  0.0000
     3 N(14)  Bbb     0.0000     0.000     0.000     0.000 -0.0000  1.0000  0.0000
              Bcc     0.0000     0.000     0.000     0.000  0.0000  0.0000  1.0000
 
              Baa     0.0000    -0.000    -0.000    -0.000  1.0000  0.0000  0.0000
     4 O(17)  Bbb     0.0000    -0.000    -0.000    -0.000 -0.0000  1.0000  0.0000
              Bcc     0.0000    -0.000    -0.000    -0.000  0.0000  0.0000  1.0000
 
              Baa     0.0000    -0.000    -0.000    -0.000  1.0000  0.0000  0.0000
     5 O(17)  Bbb     0.0000    -0.000    -0.000    -0.000 -0.0000  1.0000  0.0000
              Bcc     0.0000    -0.000    -0.000    -0.000  0.0000  0.0000  1.0000
 
              Baa     0.0000    -0.000    -0.000    -0.000  1.0000  0.0000  0.0000
     6 O(17)  Bbb     0.0000    -0.000    -0.000    -0.000 -0.0000  1.0000  0.0000
              Bcc     0.0000    -0.000    -0.000    -0.000  0.0000  0.0000  1.0000
 

 ---------------------------------------------------------------------------------

 1\1\GINC-GAMBA\SP\ROHF\Gen\N2O4\IRIKURA\01-Oct-2023\0\\# rohf/gen geom
 =check guess=check\\nitrosyl nitrate, ROHF/cc-pVTZ-F12\\0,1\N,0,1.0370
 78,0.026409,-0.016961\O,0,-0.213889,-0.634776,-0.144542\N,0,-1.451858,
 0.372466,0.154903\O,0,-2.408259,-0.201833,-0.018721\O,0,1.950421,-0.73
 9409,0.100613\O,0,1.034659,1.227002,-0.05805\\Version=ES64L-G16RevB.01
 \State=1-A\HF=-408.231846\RMSD=7.504e-09\Dipole=-1.3456842,0.1518115,0
 .0834159\Quadrupole=0.1329681,-2.1731097,2.0401416,-0.4226273,-0.46848
 ,-0.1502906\PG=C01 [X(N2O4)]\\@


 Time has a wonderful way of weeding out the trivial.
                                -- Richard Ben Sapir
 Job cpu time:       0 days  0 hours 10 minutes 24.0 seconds.
 Elapsed time:       0 days  0 hours  2 minutes 36.1 seconds.
 File lengths (MBytes):  RWF=     74 Int=      0 D2E=      0 Chk=      9 Scr=      1
 Normal termination of Gaussian 16 at Sun Oct  1 01:14:05 2023.
