 Entering Gaussian System, Link 0=g16
 AtFile(1): pcseg2.gbs
            -H     0
            S   4   1.00
                  0.754732D+02           0.427821D-02
                  0.113575D+02           0.328672D-01
                  0.260081D+01           0.159578D+00
                  0.735503D+00           0.500000D+00
            S   1   1.00
                  0.231761D+00           1.0000000
            S   1   1.00
                  0.741675D-01           1.0000000
            P   1   1.00
                  0.160000D+01           1.0000000
            P   1   1.00
                  0.450000D+00           1.0000000
            D   1   1.00
                  0.125000D+01           1.0000000
            ****
            -C     0
            S   7   1.00
                  0.731999D+04           0.695369D-03
                  0.109818D+04           0.537138D-02
                  0.250014D+03           0.274734D-01
                  0.707586D+02           0.105078D+00
                  0.228595D+02           0.291262D+00
                  0.803936D+01           0.500000D+00
                  0.289309D+01           0.362224D+00
            S   2   1.00
                  0.521640D+01          -0.957844D-01
                  0.556124D+00           0.500000D+00
            S   1   1.00
                  0.228813D+00           1.0000000
            S   1   1.00
                  0.936338D-01           1.0000000
            P   4   1.00
                  0.339855D+02           0.818395D-02
                  0.772957D+01           0.586921D-01
                  0.224954D+01           0.222514D+00
                  0.767681D+00           0.500000D+00
            P   1   1.00
                  0.263283D+00           1.0000000
            P   1   1.00
                  0.848744D-01           1.0000000
            D   1   1.00
                  0.140000D+01           1.0000000
            D   1   1.00
                  0.450000D+00           1.0000000
            F   1   1.00
                  0.950000D+00           1.0000000
            ****
            -O     0
            S   7   1.00
                  0.135887D+05           0.665492D-03
                  0.203847D+04           0.514222D-02
                  0.464041D+03           0.263472D-01
                  0.131339D+03           0.101500D+00
                  0.425340D+02           0.285877D+00
                  0.150429D+02           0.500000D+00
                  0.546616D+01           0.368211D+00
            S   2   1.00
                  0.100915D+02          -0.100084D+00
                  0.110429D+01           0.500000D+00
            S   1   1.00
                  0.448082D+00           1.0000000
            S   1   1.00
                  0.175325D+00           1.0000000
            P   4   1.00
                  0.608220D+02           0.908253D-02
                  0.140332D+02           0.645878D-01
                  0.418244D+01           0.241502D+00
                  0.142490D+01           0.500000D+00
            P   1   1.00
                  0.478741D+00           1.0000000
            P   1   1.00
                  0.146257D+00           1.0000000
            D   1   1.00
                  0.220000D+01           1.0000000
            D   1   1.00
                  0.650000D+00           1.0000000
            F   1   1.00
                  0.110000D+01           1.0000000
            ****
            -N     0
            S   7   1.00
                  0.101643D+05           0.682757D-03
                  0.152481D+04           0.527488D-02
                  0.347119D+03           0.270037D-01
                  0.982389D+02           0.103673D+00
                  0.317799D+02           0.289575D+00
                  0.112240D+02           0.500000D+00
                  0.406611D+01           0.364621D+00
            S   2   1.00
                  0.747898D+01          -0.975681D-01
                  0.805040D+00           0.500000D+00
            S   1   1.00
                  0.324626D+00           1.0000000
            S   1   1.00
                  0.128132D+00           1.0000000
            P   4   1.00
                  0.482704D+02           0.829547D-02
                  0.110815D+02           0.596223D-01
                  0.326643D+01           0.227889D+00
                  0.111680D+01           0.500000D+00
            P   1   1.00
                  0.382049D+00           1.0000000
            P   1   1.00
                  0.121222D+00           1.0000000
            D   1   1.00
                  0.180000D+01           1.0000000
            D   1   1.00
                  0.550000D+00           1.0000000
            F   1   1.00
                  0.102000D+01           1.0000000
            ****
            -F     0
            S   7   1.00
                  0.174507D+05           0.655972D-03
                  0.261768D+04           0.506944D-02
                  0.595857D+03           0.259899D-01
                  0.168651D+03           0.100353D+00
                  0.546654D+02           0.284095D+00
                  0.193717D+02           0.500000D+00
                  0.706202D+01           0.370721D+00
            S   2   1.00
                  0.131197D+02          -0.101997D+00
                  0.145046D+01           0.500000D+00
            S   1   1.00
                  0.588255D+00           1.0000000
            S   1   1.00
                  0.227960D+00           1.0000000
            P   4   1.00
                  0.779407D+02           0.931135D-02
                  0.180425D+02           0.663964D-01
                  0.542342D+01           0.246386D+00
                  0.184876D+01           0.500000D+00
            P   1   1.00
                  0.617455D+00           1.0000000
            P   1   1.00
                  0.185496D+00           1.0000000
            D   1   1.00
                  0.280000D+01           1.0000000
            D   1   1.00
                  0.800000D+00           1.0000000
            F   1   1.00
                  0.120000D+01           1.0000000
            ****
            -Cl     0
            S   8   1.00
                  0.154272D+06           0.222473D-03
                  0.231232D+05           0.172590D-02
                  0.526257D+04           0.899286D-02
                  0.148995D+04           0.367724D-01
                  0.485417D+03           0.121446D+00
                  0.174634D+03           0.304148D+00
                  0.672393D+02           0.500000D+00
                  0.265780D+02           0.360252D+00
            S   3   1.00
                  0.131826D+03          -0.531330D-01
                  0.400703D+02          -0.233346D+00
                  0.789448D+01           0.500000D+00
            S   2   1.00
                  0.427711D+01           0.500000D+00
                  0.196233D+01           0.370517D+00
            S   1   1.00
                  0.520793D+00           1.0000000
            S   1   1.00
                  0.181633D+00           1.0000000
            P   7   1.00
                  0.124440D+04           0.988206D-03
                  0.295109D+03           0.829674D-02
                  0.947224D+02           0.430906D-01
                  0.352588D+02           0.148443D+00
                  0.144211D+02           0.344744D+00
                  0.610371D+01           0.500000D+00
                  0.258886D+01           0.348278D+00
            P   2   1.00
                  0.109447D+02          -0.196768D-01
                  0.104413D+01           0.500000D+00
            P   1   1.00
                  0.376184D+00           1.0000000
            P   1   1.00
                  0.120613D+00           1.0000000
            D   1   1.00
                  0.231000D+01           1.0000000
            D   1   1.00
                  0.520000D+00           1.0000000
            F   1   1.00
                  0.720000D+00           1.0000000
            ****
            -S     0
            S   8   1.00
                  0.134700D+06           0.226231D-03
                  0.201904D+05           0.175488D-02
                  0.459528D+04           0.914190D-02
                  0.130109D+04           0.373551D-01
                  0.423902D+03           0.123121D+00
                  0.152485D+03           0.306801D+00
                  0.586925D+02           0.500000D+00
                  0.231461D+02           0.354358D+00
            S   3   1.00
                  0.116327D+03          -0.491772D-01
                  0.352841D+02          -0.215962D+00
                  0.677831D+01           0.500000D+00
            S   2   1.00
                  0.360404D+01           0.500000D+00
                  0.164871D+01           0.366278D+00
            S   1   1.00
                  0.421821D+00           1.0000000
            S   1   1.00
                  0.147554D+00           1.0000000
            P   7   1.00
                  0.104863D+04           0.105273D-02
                  0.248717D+03           0.879338D-02
                  0.797887D+02           0.453358D-01
                  0.296023D+02           0.154476D+00
                  0.120627D+02           0.352366D+00
                  0.507628D+01           0.500000D+00
                  0.213375D+01           0.346429D+00
            P   2   1.00
                  0.928958D+01          -0.185932D-01
                  0.837819D+00           0.500000D+00
            P   1   1.00
                  0.301495D+00           1.0000000
            P   1   1.00
                  0.974740D-01           1.0000000
            D   1   1.00
                  0.210000D+01           1.0000000
            D   1   1.00
                  0.480000D+00           1.0000000
            F   1   1.00
                  0.660000D+00           1.0000000
            ****
            -Si     0
            S    8   1.00
                  0.996133D+05           0.235546D-03
                  0.149311D+05           0.182707D-02
                  0.339820D+04           0.951425D-02
                  0.962140D+03           0.388172D-01
                  0.313430D+03           0.127328D+00
                  0.112683D+03           0.313522D+00
                  0.433372D+02           0.500000D+00
                  0.170029D+02           0.340347D+00
            S    3   1.00
                  0.884208D+02          -0.404451D-01
                  0.266756D+02          -0.178059D+00
                  0.479640D+01           0.500000D+00
            S    2   1.00
                  0.239385D+01           0.500000D+00
                  0.108333D+01           0.338016D+00
            S    1   1.00
                  0.252420D+00           1.0000000
            S    1   1.00
                  0.891210D-01           1.0000000
            P    7   1.00
                  0.709901D+03           0.123028D-02
                  0.168426D+03           0.101366D-01
                  0.539946D+02           0.511840D-01
                  0.198646D+02           0.169967D+00
                  0.801369D+01           0.370717D+00
                  0.331870D+01           0.500000D+00
                  0.136112D+01           0.344128D+00
            P    2   1.00
                  0.622158D+01          -0.166609D-01
                  0.503049D+00           0.500000D+00
            P    1   1.00
                  0.179848D+00           1.0000000
            P    1   1.00
                  0.591912D-01           1.0000000
            D    1   1.00
                  0.168000D+01           1.0000000
            D    1   1.00
                  0.380000D+00           1.0000000
            F    1   1.00
                  0.540000D+00           1.0000000
            ****
            -P     0
            S    8   1.00
                  0.116416D+06           0.230715D-03
                  0.174500D+05           0.178960D-02
                  0.397149D+04           0.932116D-02
                  0.112447D+04           0.380591D-01
                  0.366347D+03           0.125148D+00
                  0.131757D+03           0.310022D+00
                  0.506988D+02           0.500000D+00
                  0.199436D+02           0.347528D+00
            S    3   1.00
                  0.101878D+03          -0.446755D-01
                  0.308249D+02          -0.196376D+00
                  0.573688D+01           0.500000D+00
            S    2   1.00
                  0.296868D+01           0.500000D+00
                  0.135315D+01           0.355098D+00
            S    1   1.00
                  0.332196D+00           1.0000000
            S    1   1.00
                  0.116229D+00           1.0000000
            P    7   1.00
                  0.873928D+03           0.112375D-02
                  0.207298D+03           0.933330D-02
                  0.664628D+02           0.477213D-01
                  0.245665D+02           0.160733D+00
                  0.996820D+01           0.359760D+00
                  0.416536D+01           0.500000D+00
                  0.173022D+01           0.346593D+00
            P    2   1.00
                  0.772530D+01          -0.175718D-01
                  0.657252D+00           0.500000D+00
            P    1   1.00
                  0.239903D+00           1.0000000
            P    1   1.00
                  0.800988D-01           1.0000000
            D    1   1.00
                  0.189000D+01           1.0000000
            D    1   1.00
                  0.430000D+00           1.0000000
            F    1   1.00
                  0.600000D+00           1.0000000
            ****
            
 Initial command:
 /usr/local/apps/g16_b01_avx/g16/l1.exe "/wrk/irikura/Gau-22950.inp" -scrdir="/wrk/irikura/"
 Entering Link 1 = /usr/local/apps/g16_b01_avx/g16/l1.exe PID=     22952.
  
 Copyright (c) 1988-2017, Gaussian, Inc.  All Rights Reserved.
  
 This is part of the Gaussian(R) 16 program.  It is based on
 the Gaussian(R) 09 system (copyright 2009, Gaussian, Inc.),
 the Gaussian(R) 03 system (copyright 2003, Gaussian, Inc.),
 the Gaussian(R) 98 system (copyright 1998, Gaussian, Inc.),
 the Gaussian(R) 94 system (copyright 1995, Gaussian, Inc.),
 the Gaussian 92(TM) system (copyright 1992, Gaussian, Inc.),
 the Gaussian 90(TM) system (copyright 1990, Gaussian, Inc.),
 the Gaussian 88(TM) system (copyright 1988, Gaussian, Inc.),
 the Gaussian 86(TM) system (copyright 1986, Carnegie Mellon
 University), and the Gaussian 82(TM) system (copyright 1983,
 Carnegie Mellon University). Gaussian is a federally registered
 trademark of Gaussian, Inc.
  
 This software contains proprietary and confidential information,
 including trade secrets, belonging to Gaussian, Inc.
  
 This software is provided under written license and may be
 used, copied, transmitted, or stored only in accord with that
 written license.
  
 The following legend is applicable only to US Government
 contracts under FAR:
  
                    RESTRICTED RIGHTS LEGEND
  
 Use, reproduction and disclosure by the US Government is
 subject to restrictions as set forth in subparagraphs (a)
 and (c) of the Commercial Computer Software - Restricted
 Rights clause in FAR 52.227-19.
  
 Gaussian, Inc.
 340 Quinnipiac St., Bldg. 40, Wallingford CT 06492
  
  
 ---------------------------------------------------------------
 Warning -- This program may not be used in any manner that
 competes with the business of Gaussian, Inc. or will provide
 assistance to any competitor of Gaussian, Inc.  The licensee
 of this program is prohibited from giving any competitor of
 Gaussian, Inc. access to this program.  By using this program,
 the user acknowledges that Gaussian, Inc. is engaged in the
 business of creating and licensing software in the field of
 computational chemistry and represents and warrants to the
 licensee that it is not a competitor of Gaussian, Inc. and that
 it will not use this program in any manner prohibited above.
 ---------------------------------------------------------------
  

 Cite this work as:
 Gaussian 16, Revision B.01,
 M. J. Frisch, G. W. Trucks, H. B. Schlegel, G. E. Scuseria, 
 M. A. Robb, J. R. Cheeseman, G. Scalmani, V. Barone, 
 G. A. Petersson, H. Nakatsuji, X. Li, M. Caricato, A. V. Marenich, 
 J. Bloino, B. G. Janesko, R. Gomperts, B. Mennucci, H. P. Hratchian, 
 J. V. Ortiz, A. F. Izmaylov, J. L. Sonnenberg, D. Williams-Young, 
 F. Ding, F. Lipparini, F. Egidi, J. Goings, B. Peng, A. Petrone, 
 T. Henderson, D. Ranasinghe, V. G. Zakrzewski, J. Gao, N. Rega, 
 G. Zheng, W. Liang, M. Hada, M. Ehara, K. Toyota, R. Fukuda, 
 J. Hasegawa, M. Ishida, T. Nakajima, Y. Honda, O. Kitao, H. Nakai, 
 T. Vreven, K. Throssell, J. A. Montgomery, Jr., J. E. Peralta, 
 F. Ogliaro, M. J. Bearpark, J. J. Heyd, E. N. Brothers, K. N. Kudin, 
 V. N. Staroverov, T. A. Keith, R. Kobayashi, J. Normand, 
 K. Raghavachari, A. P. Rendell, J. C. Burant, S. S. Iyengar, 
 J. Tomasi, M. Cossi, J. M. Millam, M. Klene, C. Adamo, R. Cammi, 
 J. W. Ochterski, R. L. Martin, K. Morokuma, O. Farkas, 
 J. B. Foresman, and D. J. Fox, Gaussian, Inc., Wallingford CT, 2016.
 
 ******************************************
 Gaussian 16:  ES64L-G16RevB.01 20-Dec-2017
                 3-Feb-2022 
 ******************************************
 %mem=500mw
 --------------------
 # b3lyp/gen opt freq
 --------------------
 1/18=20,19=15,26=3,38=1/1,3;
 2/9=110,12=2,17=6,18=5,40=1/2;
 3/5=7,11=2,25=1,30=1,71=1,74=-5/1,2,3;
 4//1;
 5/5=2,38=5/2;
 6/7=2,8=2,9=2,10=2,28=1/1;
 7//1,2,3,16;
 1/18=20,19=15,26=3/3(2);
 2/9=110/2;
 99//99;
 2/9=110/2;
 3/5=7,6=1,11=2,25=1,30=1,71=1,74=-5,82=7/1,2,3;
 4/5=5,16=3,69=1/1;
 5/5=2,38=5/2;
 7//1,2,3,16;
 1/18=20,19=15,26=3/3(-5);
 2/9=110/2;
 6/7=2,8=2,9=2,10=2,19=2,28=1/1;
 99/9=1/99;
 -----------------------------
 Ethylene oxide, B3LYP/pcseg-2
 -----------------------------
 Symbolic Z-matrix:
 Charge =  0 Multiplicity = 1
 O
 C                    1    co
 C                    1    co       2     60. 
 H                    2    ch       1    a        3     120.     0
 H                    2    ch       1    a        3    -120.     0
 H                    3    ch       1    a        2     120.     0
 H                    3    ch       1    a        2    -120.     0
       Variables:
  co                    1.3                      
  ch                    1.                       
  a                   109.                       
 

 GradGradGradGradGradGradGradGradGradGradGradGradGradGradGradGradGradGrad
 Berny optimization.
 Initialization pass.
                           ----------------------------
                           !    Initial Parameters    !
                           ! (Angstroms and Degrees)  !
 --------------------------                            --------------------------
 ! Name  Definition              Value          Derivative Info.                !
 --------------------------------------------------------------------------------
 ! R1    R(1,2)                  1.3            estimate D2E/DX2                !
 ! R2    R(1,3)                  1.3            estimate D2E/DX2                !
 ! R3    R(2,3)                  1.3            estimate D2E/DX2                !
 ! R4    R(2,4)                  1.0            estimate D2E/DX2                !
 ! R5    R(2,5)                  1.0            estimate D2E/DX2                !
 ! R6    R(3,6)                  1.0            estimate D2E/DX2                !
 ! R7    R(3,7)                  1.0            estimate D2E/DX2                !
 ! A1    A(1,2,4)              109.0            estimate D2E/DX2                !
 ! A2    A(1,2,5)              109.0            estimate D2E/DX2                !
 ! A3    A(3,2,4)              124.9042         estimate D2E/DX2                !
 ! A4    A(3,2,5)              124.9042         estimate D2E/DX2                !
 ! A5    A(4,2,5)              109.9383         estimate D2E/DX2                !
 ! A6    A(1,3,6)              109.0            estimate D2E/DX2                !
 ! A7    A(1,3,7)              109.0            estimate D2E/DX2                !
 ! A8    A(2,3,6)              124.9042         estimate D2E/DX2                !
 ! A9    A(2,3,7)              124.9042         estimate D2E/DX2                !
 ! A10   A(6,3,7)              109.9383         estimate D2E/DX2                !
 ! D1    D(4,2,3,6)            173.6293         estimate D2E/DX2                !
 ! D2    D(4,2,3,7)              0.0            estimate D2E/DX2                !
 ! D3    D(5,2,3,6)              0.0            estimate D2E/DX2                !
 ! D4    D(5,2,3,7)           -173.6293         estimate D2E/DX2                !
 --------------------------------------------------------------------------------
 Trust Radius=3.00D-01 FncErr=1.00D-07 GrdErr=1.00D-06 EigMax=2.50D+02 EigMin=1.00D-04
 Number of steps in this run=     31 maximum allowed number of steps=    100.
 GradGradGradGradGradGradGradGradGradGradGradGradGradGradGradGradGradGrad

                          Input orientation:                          
 ---------------------------------------------------------------------
 Center     Atomic      Atomic             Coordinates (Angstroms)
 Number     Number       Type             X           Y           Z
 ---------------------------------------------------------------------
      1          8           0        0.000000    0.000000    0.000000
      2          6           0        0.000000    0.000000    1.300000
      3          6           0        1.125833    0.000000    0.650000
      4          1           0       -0.472759    0.818843    1.625568
      5          1           0       -0.472759   -0.818843    1.625568
      6          1           0        1.644163   -0.818843    0.403363
      7          1           0        1.644163    0.818843    0.403363
 ---------------------------------------------------------------------
                    Distance matrix (angstroms):
                    1          2          3          4          5
     1  O    0.000000
     2  C    1.300000   0.000000
     3  C    1.300000   1.300000   0.000000
     4  H    1.880552   1.000000   2.043951   0.000000
     5  H    1.880552   1.000000   2.043951   1.637686   0.000000
     6  H    1.880552   2.043951   1.000000   2.942306   2.444411
     7  H    1.880552   2.043951   1.000000   2.444411   2.942306
                    6          7
     6  H    0.000000
     7  H    1.637686   0.000000
 Stoichiometry    C2H4O
 Framework group  C2V[C2(O),SGV(C2),X(H4)]
 Deg. of freedom     5
 Full point group                 C2V     NOp   4
 Largest Abelian subgroup         C2V     NOp   4
 Largest concise Abelian subgroup C2V     NOp   4
                         Standard orientation:                         
 ---------------------------------------------------------------------
 Center     Atomic      Atomic             Coordinates (Angstroms)
 Number     Number       Type             X           Y           Z
 ---------------------------------------------------------------------
      1          8           0       -0.000000    0.000000    0.758150
      2          6           0       -0.000000    0.650000   -0.367683
      3          6           0       -0.000000   -0.650000   -0.367683
      4          1           0       -0.818843    1.222206   -0.413253
      5          1           0        0.818843    1.222206   -0.413253
      6          1           0        0.818843   -1.222206   -0.413253
      7          1           0       -0.818843   -1.222206   -0.413253
 ---------------------------------------------------------------------
 Rotational constants (GHZ):          32.0489476          26.7893745          17.2909952
 General basis read from cards:  (5D, 7F)
 There are    55 symmetry adapted cartesian basis functions of A1  symmetry.
 There are    29 symmetry adapted cartesian basis functions of A2  symmetry.
 There are    34 symmetry adapted cartesian basis functions of B1  symmetry.
 There are    47 symmetry adapted cartesian basis functions of B2  symmetry.
 There are    47 symmetry adapted basis functions of A1  symmetry.
 There are    27 symmetry adapted basis functions of A2  symmetry.
 There are    31 symmetry adapted basis functions of B1  symmetry.
 There are    41 symmetry adapted basis functions of B2  symmetry.
   146 basis functions,   225 primitive gaussians,   165 cartesian basis functions
    12 alpha electrons       12 beta electrons
       nuclear repulsion energy        83.0892210134 Hartrees.
 NAtoms=    7 NActive=    7 NUniq=    3 SFac= 4.00D+00 NAtFMM=   60 NAOKFM=F Big=F
 Integral buffers will be    131072 words long.
 Raffenetti 2 integral format.
 Two-electron integral symmetry is turned on.
 One-electron integrals computed using PRISM.
 NBasis=   146 RedAO= T EigKep=  3.80D-04  NBF=    47    27    31    41
 NBsUse=   146 1.00D-06 EigRej= -1.00D+00 NBFU=    47    27    31    41
 ExpMin= 7.42D-02 ExpMax= 1.36D+04 ExpMxC= 4.64D+02 IAcc=3 IRadAn=         5 AccDes= 0.00D+00
 Harris functional with IExCor=  402 and IRadAn=       5 diagonalized for initial guess.
 HarFok:  IExCor=  402 AccDes= 0.00D+00 IRadAn=         5 IDoV= 1 UseB2=F ITyADJ=14
 ICtDFT=  3500011 ScaDFX=  1.000000  1.000000  1.000000  1.000000
 FoFCou: FMM=F IPFlag=           0 FMFlag=      100000 FMFlg1=           0
         NFxFlg=           0 DoJE=T BraDBF=F KetDBF=T FulRan=T
         wScrn=  0.000000 ICntrl=       500 IOpCl=  0 I1Cent=   200000004 NGrid=           0
         NMat0=    1 NMatS0=      1 NMatT0=    0 NMatD0=    1 NMtDS0=    0 NMtDT0=    0
 Petite list used in FoFCou.
 Initial guess orbital symmetries:
       Occupied  (A1) (A1) (B2) (A1) (A1) (B2) (B1) (A1) (B2) (A2)
                 (A1) (B1)
       Virtual   (B2) (A1) (A1) (B1) (B2) (A2) (A1) (B2) (B1) (B2)
                 (A1) (A1) (B1) (A1) (B2) (A2) (B1) (A1) (B2) (B2)
                 (A2) (B2) (A2) (A1) (B1) (A1) (A1) (B1) (B2) (A1)
                 (B2) (A2) (B1) (A2) (A1) (B2) (A1) (B1) (B1) (A1)
                 (A2) (B2) (B2) (B2) (A1) (A2) (B1) (B2) (A1) (B1)
                 (A1) (A2) (B2) (B2) (A1) (A1) (A2) (B1) (B2) (B1)
                 (B2) (A1) (A1) (A2) (A1) (B1) (B2) (B1) (A1) (A1)
                 (A2) (B2) (B1) (A2) (B1) (B2) (A2) (A1) (B1) (B2)
                 (B1) (A1) (B2) (A2) (B2) (A1) (A2) (B1) (A1) (A2)
                 (B2) (B1) (A1) (B2) (A1) (A2) (B2) (B1) (A2) (A1)
                 (B2) (B1) (B2) (A1) (B1) (A2) (A1) (B2) (B2) (A1)
                 (A2) (A1) (B2) (A1) (B1) (B1) (B2) (A2) (B2) (B1)
                 (A2) (A1) (A2) (A1) (A1) (B1) (B2) (B2) (A2) (A1)
                 (B1) (A1) (B2) (A2)
 The electronic state of the initial guess is 1-A1.
 Keep R1 ints in memory in symmetry-blocked form, NReq=72045333.
 Requested convergence on RMS density matrix=1.00D-08 within 128 cycles.
 Requested convergence on MAX density matrix=1.00D-06.
 Requested convergence on             energy=1.00D-06.
 No special actions if energy rises.
 Integral accuracy reduced to 1.0D-05 until final iterations.
 Initial convergence to 1.0D-05 achieved.  Increase integral accuracy.
 SCF Done:  E(RB3LYP) =  -153.772851819     A.U. after   10 cycles
            NFock= 10  Conv=0.84D-08     -V/T= 1.9936

 **********************************************************************

            Population analysis using the SCF Density.

 **********************************************************************

 Orbital symmetries:
       Occupied  (A1) (A1) (B2) (A1) (A1) (B2) (B1) (A1) (B2) (A2)
                 (A1) (B1)
       Virtual   (A1) (B2) (B1) (A1) (A2) (B2) (A1) (B2) (B1) (B2)
                 (A1) (B1) (A1) (B2) (A2) (A1) (B1) (A1) (B2) (A2)
                 (B2) (B2) (A2) (A1) (B1) (A1) (B1) (A1) (A1) (B2)
                 (A2) (B2) (B1) (A2) (B2) (A1) (B1) (A1) (A1) (B1)
                 (B2) (A2) (B2) (B2) (A1) (A2) (B1) (B2) (A1) (A1)
                 (B1) (A2) (B2) (B2) (A1) (A1) (A2) (B1) (B2) (B1)
                 (B2) (A1) (A1) (A2) (A1) (B1) (B2) (B1) (A1) (A2)
                 (A1) (B2) (B1) (A2) (B1) (B2) (A2) (A1) (B1) (B1)
                 (B2) (A1) (B2) (A2) (B2) (A2) (A1) (B1) (A1) (B2)
                 (A2) (A1) (B1) (B2) (A1) (A2) (B2) (B1) (A2) (A1)
                 (B1) (B2) (B2) (A1) (B1) (A2) (A1) (B2) (B2) (A1)
                 (A2) (A1) (B2) (A1) (B1) (B1) (B2) (A2) (B2) (B1)
                 (A2) (A1) (A2) (A1) (A1) (B1) (B2) (B2) (A2) (A1)
                 (B1) (A1) (B2) (A2)
 The electronic state is 1-A1.
 Alpha  occ. eigenvalues --  -19.12011 -10.19440 -10.19324  -1.17753  -0.68279
 Alpha  occ. eigenvalues --   -0.68098  -0.56955  -0.53827  -0.40828  -0.38865
 Alpha  occ. eigenvalues --   -0.35637  -0.26689
 Alpha virt. eigenvalues --    0.02960   0.04993   0.05490   0.07176   0.10629
 Alpha virt. eigenvalues --    0.11122   0.14840   0.20386   0.23324   0.24456
 Alpha virt. eigenvalues --    0.26855   0.30795   0.34239   0.37047   0.37326
 Alpha virt. eigenvalues --    0.37702   0.40358   0.43250   0.44899   0.51167
 Alpha virt. eigenvalues --    0.55360   0.57065   0.73096   0.73623   0.79213
 Alpha virt. eigenvalues --    0.83680   0.90263   0.90868   0.99738   1.00750
 Alpha virt. eigenvalues --    1.03281   1.07150   1.07786   1.11789   1.11985
 Alpha virt. eigenvalues --    1.14844   1.26396   1.26650   1.37991   1.39391
 Alpha virt. eigenvalues --    1.40940   1.42989   1.47540   1.63809   1.68726
 Alpha virt. eigenvalues --    1.74222   1.75609   1.81127   1.84817   1.95376
 Alpha virt. eigenvalues --    1.96052   1.96700   2.03669   2.15863   2.18688
 Alpha virt. eigenvalues --    2.22152   2.27656   2.36982   2.55737   2.76076
 Alpha virt. eigenvalues --    2.84011   2.85802   2.91905   2.92228   3.06365
 Alpha virt. eigenvalues --    3.17850   3.30601   3.39806   3.44270   3.51809
 Alpha virt. eigenvalues --    3.52281   3.53595   3.56974   3.66435   3.68928
 Alpha virt. eigenvalues --    3.83827   3.84820   3.87100   3.94267   3.99023
 Alpha virt. eigenvalues --    3.99614   4.01435   4.10207   4.14281   4.16510
 Alpha virt. eigenvalues --    4.19807   4.20291   4.22803   4.29064   4.44521
 Alpha virt. eigenvalues --    4.46014   4.50060   4.50519   4.54995   4.61926
 Alpha virt. eigenvalues --    4.64002   4.71152   4.74802   4.75747   4.84122
 Alpha virt. eigenvalues --    4.89578   4.89664   4.95820   5.06259   5.17485
 Alpha virt. eigenvalues --    5.26269   5.40012   5.42879   5.44569   5.51438
 Alpha virt. eigenvalues --    5.52787   5.58419   5.63715   5.77862   5.79794
 Alpha virt. eigenvalues --    5.82231   6.02883   6.03986   6.10052   6.10773
 Alpha virt. eigenvalues --    6.17349   6.20041   6.32770   6.41006   6.51796
 Alpha virt. eigenvalues --    6.56788   6.61808   6.78823   6.85766   6.86699
 Alpha virt. eigenvalues --    6.96169   7.08359   7.18296   7.35718
          Condensed to atoms (all electrons):
               1          2          3          4          5          6
     1  O    8.323803   0.148859   0.148859  -0.044738  -0.044738  -0.044738
     2  C    0.148859   4.405277   0.407509   0.442762   0.442762  -0.021199
     3  C    0.148859   0.407509   4.405277  -0.021199  -0.021199   0.442762
     4  H   -0.044738   0.442762  -0.021199   0.651005  -0.038046   0.003072
     5  H   -0.044738   0.442762  -0.021199  -0.038046   0.651005  -0.005884
     6  H   -0.044738  -0.021199   0.442762   0.003072  -0.005884   0.651005
     7  H   -0.044738  -0.021199   0.442762  -0.005884   0.003072  -0.038046
               7
     1  O   -0.044738
     2  C   -0.021199
     3  C    0.442762
     4  H   -0.005884
     5  H    0.003072
     6  H   -0.038046
     7  H    0.651005
 Mulliken charges:
               1
     1  O   -0.442569
     2  C    0.195229
     3  C    0.195229
     4  H    0.013028
     5  H    0.013028
     6  H    0.013028
     7  H    0.013028
 Sum of Mulliken charges =   0.00000
 Mulliken charges with hydrogens summed into heavy atoms:
               1
     1  O   -0.442569
     2  C    0.221285
     3  C    0.221285
 Electronic spatial extent (au):  <R**2>=            113.8220
 Charge=              0.0000 electrons
 Dipole moment (field-independent basis, Debye):
    X=             -0.0000    Y=              0.0000    Z=             -1.3966  Tot=              1.3966
 Quadrupole moment (field-independent basis, Debye-Ang):
   XX=            -17.4617   YY=            -15.9945   ZZ=            -20.5439
   XY=             -0.0000   XZ=              0.0000   YZ=             -0.0000
 Traceless Quadrupole moment (field-independent basis, Debye-Ang):
   XX=              0.5383   YY=              2.0055   ZZ=             -2.5439
   XY=             -0.0000   XZ=              0.0000   YZ=             -0.0000
 Octapole moment (field-independent basis, Debye-Ang**2):
  XXX=              0.0000  YYY=              0.0000  ZZZ=              1.5977  XYY=             -0.0000
  XXY=             -0.0000  XXZ=              0.8046  XZZ=              0.0000  YZZ=             -0.0000
  YYZ=              1.0827  XYZ=             -0.0000
 Hexadecapole moment (field-independent basis, Debye-Ang**3):
 XXXX=            -28.0569 YYYY=            -64.6755 ZZZZ=            -50.2647 XXXY=              0.0000
 XXXZ=             -0.0000 YYYX=             -0.0000 YYYZ=              0.0000 ZZZX=             -0.0000
 ZZZY=              0.0000 XXYY=            -14.3048 XXZZ=            -13.8560 YYZZ=            -19.2449
 XXYZ=              0.0000 YYXZ=              0.0000 ZZXY=             -0.0000
 N-N= 8.308922101344D+01 E-N=-5.269721367572D+02  KE= 1.547636455995D+02
 Symmetry A1   KE= 1.064140237741D+02
 Symmetry A2   KE= 2.362306980407D+00
 Symmetry B1   KE= 6.982931257881D+00
 Symmetry B2   KE= 3.900438358713D+01
 Calling FoFJK, ICntrl=      2127 FMM=F ISym2X=1 I1Cent= 0 IOpClX= 0 NMat=1 NMatS=1 NMatT=0.
 ***** Axes restored to original set *****
 -------------------------------------------------------------------
 Center     Atomic                   Forces (Hartrees/Bohr)
 Number     Number              X              Y              Z
 -------------------------------------------------------------------
      1        8          -0.094786804    0.000000000   -0.164175561
      2        6          -0.105169269    0.000000000    0.109579582
      3        6           0.147483336   -0.000000000   -0.036289468
      4        1          -0.019966035    0.065705798    0.041822544
      5        1          -0.019966035   -0.065705798    0.041822544
      6        1           0.046202403   -0.065705798    0.003620179
      7        1           0.046202403    0.065705798    0.003620179
 -------------------------------------------------------------------
 Cartesian Forces:  Max     0.164175561 RMS     0.071692050

 GradGradGradGradGradGradGradGradGradGradGradGradGradGradGradGradGradGrad
 Berny optimization.
 FormGI is forming the generalized inverse of G from B-inverse, IUseBI=4.
 Internal  Forces:  Max     0.161523781 RMS     0.060753827
 Search for a local minimum.
 Step number   1 out of a maximum of   31
 All quantities printed in internal units (Hartrees-Bohrs-Radians)
 Mixed Optimization -- RFO/linear search
 Second derivative matrix not updated -- first step.
 ITU=  0
     Eigenvalues ---    0.04769   0.05883   0.05933   0.16000   0.16000
     Eigenvalues ---    0.16000   0.16000   0.16000   0.47688   0.47688
     Eigenvalues ---    0.47688   0.47688   0.58756   0.64046   0.67193
 RFO step:  Lambda=-1.17746853D-01 EMin= 4.76881069D-02
 Linear search not attempted -- first point.
 Maximum step size (   0.300) exceeded in Quadratic search.
    -- Step size scaled by   0.730
 Iteration  1 RMS(Cart)=  0.07346667 RMS(Int)=  0.00306280
 Iteration  2 RMS(Cart)=  0.00261111 RMS(Int)=  0.00100748
 Iteration  3 RMS(Cart)=  0.00000593 RMS(Int)=  0.00100746
 Iteration  4 RMS(Cart)=  0.00000000 RMS(Int)=  0.00100746
 ClnCor:  largest displacement from symmetrization is 1.23D-08 for atom     5.
 Variable       Old X    -DE/DX   Delta X   Delta X   Delta X     New X
                                 (Linear)    (Quad)   (Total)
    R1        2.45664   0.11246   0.00000   0.10459   0.10448   2.56112
    R2        2.45664   0.11246   0.00000   0.10459   0.10448   2.56112
    R3        2.45664   0.16152   0.00000   0.14823   0.14845   2.60509
    R4        1.88973   0.07686   0.00000   0.09440   0.09440   1.98413
    R5        1.88973   0.07686   0.00000   0.09440   0.09440   1.98413
    R6        1.88973   0.07686   0.00000   0.09440   0.09440   1.98413
    R7        1.88973   0.07686   0.00000   0.09440   0.09440   1.98413
    A1        1.90241   0.01282   0.00000   0.04068   0.04017   1.94258
    A2        1.90241   0.01282   0.00000   0.04068   0.04017   1.94258
    A3        2.17999  -0.00690   0.00000  -0.02035  -0.02210   2.15789
    A4        2.17999  -0.00690   0.00000  -0.02035  -0.02210   2.15789
    A5        1.91879   0.01165   0.00000   0.03125   0.02925   1.94804
    A6        1.90241   0.01282   0.00000   0.04068   0.04017   1.94258
    A7        1.90241   0.01282   0.00000   0.04068   0.04017   1.94258
    A8        2.17999  -0.00690   0.00000  -0.02035  -0.02210   2.15789
    A9        2.17999  -0.00690   0.00000  -0.02035  -0.02210   2.15789
   A10        1.91879   0.01165   0.00000   0.03125   0.02925   1.94804
    D1        3.03040  -0.02625   0.00000  -0.11677  -0.11683   2.91358
    D2        0.00000  -0.00000   0.00000  -0.00000  -0.00000  -0.00000
    D3        0.00000  -0.00000   0.00000  -0.00000   0.00000   0.00000
    D4       -3.03040   0.02625   0.00000   0.11677   0.11683  -2.91358
         Item               Value     Threshold  Converged?
 Maximum Force            0.161524     0.000450     NO 
 RMS     Force            0.060754     0.000300     NO 
 Maximum Displacement     0.108016     0.001800     NO 
 RMS     Displacement     0.073038     0.001200     NO 
 Predicted change in Energy=-6.147150D-02
 GradGradGradGradGradGradGradGradGradGradGradGradGradGradGradGradGradGrad

                          Input orientation:                          
 ---------------------------------------------------------------------
 Center     Atomic      Atomic             Coordinates (Angstroms)
 Number     Number       Type             X           Y           Z
 ---------------------------------------------------------------------
      1          8           0       -0.033001    0.000000   -0.057160
      2          6           0       -0.046473   -0.000000    1.298062
      3          6           0        1.147391    0.000000    0.608784
      4          1           0       -0.500442    0.868471    1.674989
      5          1           0       -0.500442   -0.868471    1.674989
      6          1           0        1.700804   -0.868471    0.404099
      7          1           0        1.700804    0.868471    0.404099
 ---------------------------------------------------------------------
                    Distance matrix (angstroms):
                    1          2          3          4          5
     1  O    0.000000
     2  C    1.355289   0.000000
     3  C    1.355289   1.378556   0.000000
     4  H    1.993259   1.049954   2.146250   0.000000
     5  H    1.993259   1.049954   2.146250   1.736943   0.000000
     6  H    1.993259   2.146250   1.049954   3.078574   2.541780
     7  H    1.993259   2.146250   1.049954   2.541780   3.078574
                    6          7
     6  H    0.000000
     7  H    1.736943   0.000000
 Stoichiometry    C2H4O
 Framework group  C2V[C2(O),SGV(C2),X(H4)]
 Deg. of freedom     5
 Full point group                 C2V     NOp   4
 Largest Abelian subgroup         C2V     NOp   4
 Largest concise Abelian subgroup C2V     NOp   4
                         Standard orientation:                         
 ---------------------------------------------------------------------
 Center     Atomic      Atomic             Coordinates (Angstroms)
 Number     Number       Type             X           Y           Z
 ---------------------------------------------------------------------
      1          8           0        0.000000    0.000000    0.794521
      2          6           0        0.000000    0.689278   -0.372400
      3          6           0       -0.000000   -0.689278   -0.372400
      4          1           0       -0.868471    1.270890   -0.471843
      5          1           0        0.868471    1.270890   -0.471843
      6          1           0        0.868471   -1.270890   -0.471843
      7          1           0       -0.868471   -1.270890   -0.471843
 ---------------------------------------------------------------------
 Rotational constants (GHZ):          29.2394586          24.1181727          15.7158553
 Basis read from rwf:  (5D, 7F)
 There are    55 symmetry adapted cartesian basis functions of A1  symmetry.
 There are    29 symmetry adapted cartesian basis functions of A2  symmetry.
 There are    34 symmetry adapted cartesian basis functions of B1  symmetry.
 There are    47 symmetry adapted cartesian basis functions of B2  symmetry.
 There are    47 symmetry adapted basis functions of A1  symmetry.
 There are    27 symmetry adapted basis functions of A2  symmetry.
 There are    31 symmetry adapted basis functions of B1  symmetry.
 There are    41 symmetry adapted basis functions of B2  symmetry.
   146 basis functions,   225 primitive gaussians,   165 cartesian basis functions
    12 alpha electrons       12 beta electrons
       nuclear repulsion energy        79.1809875450 Hartrees.
 NAtoms=    7 NActive=    7 NUniq=    3 SFac= 4.00D+00 NAtFMM=   60 NAOKFM=F Big=F
 Integral buffers will be    131072 words long.
 Raffenetti 2 integral format.
 Two-electron integral symmetry is turned on.
 One-electron integrals computed using PRISM.
 NBasis=   146 RedAO= T EigKep=  4.90D-04  NBF=    47    27    31    41
 NBsUse=   146 1.00D-06 EigRej= -1.00D+00 NBFU=    47    27    31    41
 Initial guess from the checkpoint file:  "/wrk/irikura/Gau-22952.chk"
 B after Tr=     0.000000   -0.000000    0.000000
         Rot=    1.000000   -0.000000   -0.000000    0.000000 Ang=   0.00 deg.
 Initial guess orbital symmetries:
       Occupied  (A1) (A1) (B2) (A1) (A1) (B2) (B1) (A1) (B2) (A2)
                 (A1) (B1)
       Virtual   (A1) (B2) (B1) (A1) (A2) (B2) (A1) (B2) (B1) (B2)
                 (A1) (B1) (A1) (B2) (A2) (A1) (B1) (A1) (B2) (A2)
                 (B2) (B2) (A2) (A1) (B1) (A1) (B1) (A1) (A1) (B2)
                 (A2) (B2) (B1) (A2) (B2) (A1) (B1) (A1) (A1) (B1)
                 (B2) (A2) (B2) (B2) (A1) (A2) (B1) (B2) (A1) (A1)
                 (B1) (A2) (B2) (B2) (A1) (A1) (A2) (B1) (B2) (B1)
                 (B2) (A1) (A1) (A2) (A1) (B1) (B2) (B1) (A1) (A2)
                 (A1) (B2) (B1) (A2) (B1) (B2) (A2) (A1) (B1) (B1)
                 (B2) (A1) (B2) (A2) (B2) (A2) (A1) (B1) (A1) (B2)
                 (A2) (A1) (B1) (B2) (A1) (A2) (B2) (B1) (A2) (A1)
                 (B1) (B2) (B2) (A1) (B1) (A2) (A1) (B2) (B2) (A1)
                 (A2) (A1) (B2) (A1) (B1) (B1) (B2) (A2) (B2) (B1)
                 (A2) (A1) (A2) (A1) (A1) (B1) (B2) (B2) (A2) (A1)
                 (B1) (A1) (B2) (A2)
 ExpMin= 7.42D-02 ExpMax= 1.36D+04 ExpMxC= 4.64D+02 IAcc=3 IRadAn=         5 AccDes= 0.00D+00
 Harris functional with IExCor=  402 and IRadAn=       5 diagonalized for initial guess.
 HarFok:  IExCor=  402 AccDes= 0.00D+00 IRadAn=         5 IDoV= 1 UseB2=F ITyADJ=14
 ICtDFT=  3500011 ScaDFX=  1.000000  1.000000  1.000000  1.000000
 FoFCou: FMM=F IPFlag=           0 FMFlag=      100000 FMFlg1=           0
         NFxFlg=           0 DoJE=T BraDBF=F KetDBF=T FulRan=T
         wScrn=  0.000000 ICntrl=       500 IOpCl=  0 I1Cent=   200000004 NGrid=           0
         NMat0=    1 NMatS0=      1 NMatT0=    0 NMatD0=    1 NMtDS0=    0 NMtDT0=    0
 Petite list used in FoFCou.
 Keep R1 ints in memory in symmetry-blocked form, NReq=72045333.
 Requested convergence on RMS density matrix=1.00D-08 within 128 cycles.
 Requested convergence on MAX density matrix=1.00D-06.
 Requested convergence on             energy=1.00D-06.
 No special actions if energy rises.
 Integral accuracy reduced to 1.0D-05 until final iterations.
 Initial convergence to 1.0D-05 achieved.  Increase integral accuracy.
 SCF Done:  E(RB3LYP) =  -153.833535880     A.U. after   10 cycles
            NFock= 10  Conv=0.81D-08     -V/T= 1.9992
 Calling FoFJK, ICntrl=      2127 FMM=F ISym2X=1 I1Cent= 0 IOpClX= 0 NMat=1 NMatS=1 NMatT=0.
 ***** Axes restored to original set *****
 -------------------------------------------------------------------
 Center     Atomic                   Forces (Hartrees/Bohr)
 Number     Number              X              Y              Z
 -------------------------------------------------------------------
      1        8          -0.045296157    0.000000000   -0.078455246
      2        6          -0.056767259   -0.000000000    0.049046524
      3        6           0.070859166   -0.000000000   -0.024638626
      4        1          -0.001403603    0.025174423    0.018826153
      5        1          -0.001403603   -0.025174423    0.018826153
      6        1           0.017005729   -0.025174423    0.008197521
      7        1           0.017005729    0.025174423    0.008197521
 -------------------------------------------------------------------
 Cartesian Forces:  Max     0.078455246 RMS     0.033397831

 GradGradGradGradGradGradGradGradGradGradGradGradGradGradGradGradGradGrad
 Berny optimization.
 Using GEDIIS/GDIIS optimizer.
 FormGI is forming the generalized inverse of G from B-inverse, IUseBI=4.
 Internal  Forces:  Max     0.065810582 RMS     0.026146100
 Search for a local minimum.
 Step number   2 out of a maximum of   31
 All quantities printed in internal units (Hartrees-Bohrs-Radians)
 Mixed Optimization -- RFO/linear search
 Update second derivatives using D2CorX and points    1    2
 DE= -6.07D-02 DEPred=-6.15D-02 R= 9.87D-01
 TightC=F SS=  1.41D+00  RLast= 3.42D-01 DXNew= 5.0454D-01 1.0259D+00
 Trust test= 9.87D-01 RLast= 3.42D-01 DXMaxT set to 5.05D-01
 ITU=  1  0
 Use linear search instead of GDIIS.
     Eigenvalues ---    0.04823   0.05917   0.06198   0.15854   0.16000
     Eigenvalues ---    0.16000   0.16000   0.16000   0.47688   0.47688
     Eigenvalues ---    0.47688   0.50639   0.59398   0.60610   0.65588
 RFO step:  Lambda=-1.98673429D-02 EMin= 4.82277692D-02
 Quartic linear search produced a step of  1.10142.
 Iteration  1 RMS(Cart)=  0.08797599 RMS(Int)=  0.06627571
 Iteration  2 RMS(Cart)=  0.06262160 RMS(Int)=  0.01701287
 Iteration  3 RMS(Cart)=  0.00373227 RMS(Int)=  0.01652307
 Iteration  4 RMS(Cart)=  0.00000864 RMS(Int)=  0.01652307
 Iteration  5 RMS(Cart)=  0.00000024 RMS(Int)=  0.01652307
 ClnCor:  largest displacement from symmetrization is 3.85D-09 for atom     3.
 Variable       Old X    -DE/DX   Delta X   Delta X   Delta X     New X
                                 (Linear)    (Quad)   (Total)
    R1        2.56112   0.05382   0.11508   0.00408   0.11826   2.67938
    R2        2.56112   0.05382   0.11508   0.00408   0.11826   2.67938
    R3        2.60509   0.06581   0.16351  -0.04116   0.12410   2.72919
    R4        1.98413   0.02819   0.10397  -0.02900   0.07498   2.05911
    R5        1.98413   0.02819   0.10397  -0.02900   0.07498   2.05911
    R6        1.98413   0.02819   0.10397  -0.02900   0.07498   2.05911
    R7        1.98413   0.02819   0.10397  -0.02900   0.07498   2.05911
    A1        1.94258   0.00569   0.04424   0.08234   0.11967   2.06225
    A2        1.94258   0.00569   0.04424   0.08234   0.11967   2.06225
    A3        2.15789  -0.00586  -0.02435  -0.05523  -0.10582   2.05207
    A4        2.15789  -0.00586  -0.02435  -0.05523  -0.10582   2.05207
    A5        1.94804   0.00845   0.03222   0.06013   0.05713   2.00517
    A6        1.94258   0.00569   0.04424   0.08234   0.11967   2.06225
    A7        1.94258   0.00569   0.04424   0.08234   0.11967   2.06225
    A8        2.15789  -0.00586  -0.02435  -0.05523  -0.10582   2.05207
    A9        2.15789  -0.00586  -0.02435  -0.05523  -0.10582   2.05207
   A10        1.94804   0.00845   0.03222   0.06013   0.05713   2.00517
    D1        2.91358  -0.01795  -0.12867  -0.28506  -0.40146   2.51212
    D2        0.00000  -0.00000   0.00000   0.00000  -0.00000   0.00000
    D3        0.00000   0.00000   0.00000   0.00000   0.00000   0.00000
    D4       -2.91358   0.01795   0.12867   0.28506   0.40146  -2.51212
         Item               Value     Threshold  Converged?
 Maximum Force            0.065811     0.000450     NO 
 RMS     Force            0.026146     0.000300     NO 
 Maximum Displacement     0.261364     0.001800     NO 
 RMS     Displacement     0.132256     0.001200     NO 
 Predicted change in Energy=-1.490304D-02
 GradGradGradGradGradGradGradGradGradGradGradGradGradGradGradGradGradGrad

                          Input orientation:                          
 ---------------------------------------------------------------------
 Center     Atomic      Atomic             Coordinates (Angstroms)
 Number     Number       Type             X           Y           Z
 ---------------------------------------------------------------------
      1          8           0       -0.112853   -0.000000   -0.195468
      2          6           0       -0.128119   -0.000000    1.222319
      3          6           0        1.122619    0.000000    0.500205
      4          1           0       -0.415443    0.918411    1.733458
      5          1           0       -0.415443   -0.918411    1.733458
      6          1           0        1.708940   -0.918411    0.506944
      7          1           0        1.708940    0.918411    0.506944
 ---------------------------------------------------------------------
                    Distance matrix (angstroms):
                    1          2          3          4          5
     1  O    0.000000
     2  C    1.417869   0.000000
     3  C    1.417869   1.444228   0.000000
     4  H    2.157729   1.089631   2.174862   0.000000
     5  H    2.157729   1.089631   2.174862   1.836822   0.000000
     6  H    2.157729   2.174862   1.089631   3.064515   2.453026
     7  H    2.157729   2.174862   1.089631   2.453026   3.064515
                    6          7
     6  H    0.000000
     7  H    1.836822   0.000000
 Stoichiometry    C2H4O
 Framework group  C2V[C2(O),SGV(C2),X(H4)]
 Deg. of freedom     5
 Full point group                 C2V     NOp   4
 Largest Abelian subgroup         C2V     NOp   4
 Largest concise Abelian subgroup C2V     NOp   4
                         Standard orientation:                         
 ---------------------------------------------------------------------
 Center     Atomic      Atomic             Coordinates (Angstroms)
 Number     Number       Type             X           Y           Z
 ---------------------------------------------------------------------
      1          8           0        0.000000    0.000000    0.863304
      2          6           0        0.000000    0.722114   -0.356903
      3          6           0       -0.000000   -0.722114   -0.356903
      4          1           0       -0.918411    1.226513   -0.655900
      5          1           0        0.918411    1.226513   -0.655900
      6          1           0        0.918411   -1.226513   -0.655900
      7          1           0       -0.918411   -1.226513   -0.655900
 ---------------------------------------------------------------------
 Rotational constants (GHZ):          25.3205730          22.9931987          14.3826537
 Basis read from rwf:  (5D, 7F)
 There are    55 symmetry adapted cartesian basis functions of A1  symmetry.
 There are    29 symmetry adapted cartesian basis functions of A2  symmetry.
 There are    34 symmetry adapted cartesian basis functions of B1  symmetry.
 There are    47 symmetry adapted cartesian basis functions of B2  symmetry.
 There are    47 symmetry adapted basis functions of A1  symmetry.
 There are    27 symmetry adapted basis functions of A2  symmetry.
 There are    31 symmetry adapted basis functions of B1  symmetry.
 There are    41 symmetry adapted basis functions of B2  symmetry.
   146 basis functions,   225 primitive gaussians,   165 cartesian basis functions
    12 alpha electrons       12 beta electrons
       nuclear repulsion energy        75.7158622556 Hartrees.
 NAtoms=    7 NActive=    7 NUniq=    3 SFac= 4.00D+00 NAtFMM=   60 NAOKFM=F Big=F
 Integral buffers will be    131072 words long.
 Raffenetti 2 integral format.
 Two-electron integral symmetry is turned on.
 One-electron integrals computed using PRISM.
 NBasis=   146 RedAO= T EigKep=  6.25D-04  NBF=    47    27    31    41
 NBsUse=   146 1.00D-06 EigRej= -1.00D+00 NBFU=    47    27    31    41
 Initial guess from the checkpoint file:  "/wrk/irikura/Gau-22952.chk"
 B after Tr=    -0.000000   -0.000000   -0.000000
         Rot=    1.000000   -0.000000   -0.000000   -0.000000 Ang=   0.00 deg.
 Initial guess orbital symmetries:
       Occupied  (A1) (A1) (B2) (A1) (A1) (B2) (B1) (A1) (B2) (A2)
                 (A1) (B1)
       Virtual   (A1) (B2) (B1) (A1) (B2) (A2) (A1) (B2) (B1) (B2)
                 (A1) (B1) (A1) (A1) (B2) (A2) (B1) (A1) (B2) (A2)
                 (B2) (B2) (A1) (A2) (B1) (A1) (A1) (B1) (A1) (A2)
                 (B2) (B2) (B1) (A2) (B2) (A1) (B1) (A1) (B1) (A2)
                 (A1) (B2) (B2) (B2) (A1) (B1) (A2) (B2) (A1) (A2)
                 (A1) (B2) (B1) (B2) (A1) (A1) (A2) (B1) (B2) (B1)
                 (A1) (A2) (B2) (A1) (A1) (B1) (B2) (A1) (B1) (A1)
                 (A2) (B1) (A2) (B2) (B1) (A2) (B2) (A1) (B2) (B1)
                 (B1) (A1) (A2) (B2) (B1) (A1) (A2) (B2) (A1) (B2)
                 (A2) (A1) (B1) (A1) (A2) (B2) (B2) (B1) (A2) (A1)
                 (B2) (B1) (B2) (A1) (B1) (A2) (B2) (A1) (B2) (A1)
                 (A2) (A1) (A1) (B1) (B2) (B1) (B2) (A1) (A2) (B2)
                 (A2) (B1) (A1) (A2) (B2) (B1) (A1) (B2) (A2) (B1)
                 (A1) (A2) (A1) (B2)
 ExpMin= 7.42D-02 ExpMax= 1.36D+04 ExpMxC= 4.64D+02 IAcc=3 IRadAn=         5 AccDes= 0.00D+00
 Harris functional with IExCor=  402 and IRadAn=       5 diagonalized for initial guess.
 HarFok:  IExCor=  402 AccDes= 0.00D+00 IRadAn=         5 IDoV= 1 UseB2=F ITyADJ=14
 ICtDFT=  3500011 ScaDFX=  1.000000  1.000000  1.000000  1.000000
 FoFCou: FMM=F IPFlag=           0 FMFlag=      100000 FMFlg1=           0
         NFxFlg=           0 DoJE=T BraDBF=F KetDBF=T FulRan=T
         wScrn=  0.000000 ICntrl=       500 IOpCl=  0 I1Cent=   200000004 NGrid=           0
         NMat0=    1 NMatS0=      1 NMatT0=    0 NMatD0=    1 NMtDS0=    0 NMtDT0=    0
 Petite list used in FoFCou.
 Keep R1 ints in memory in symmetry-blocked form, NReq=72045333.
 Requested convergence on RMS density matrix=1.00D-08 within 128 cycles.
 Requested convergence on MAX density matrix=1.00D-06.
 Requested convergence on             energy=1.00D-06.
 No special actions if energy rises.
 Integral accuracy reduced to 1.0D-05 until final iterations.
 Initial convergence to 1.0D-05 achieved.  Increase integral accuracy.
 SCF Done:  E(RB3LYP) =  -153.852613851     A.U. after   11 cycles
            NFock= 11  Conv=0.14D-08     -V/T= 2.0035
 Calling FoFJK, ICntrl=      2127 FMM=F ISym2X=1 I1Cent= 0 IOpClX= 0 NMat=1 NMatS=1 NMatT=0.
 ***** Axes restored to original set *****
 -------------------------------------------------------------------
 Center     Atomic                   Forces (Hartrees/Bohr)
 Number     Number              X              Y              Z
 -------------------------------------------------------------------
      1        8          -0.001791568    0.000000000   -0.003103087
      2        6          -0.002744525    0.000000000    0.020578392
      3        6           0.019193673   -0.000000000    0.007912368
      4        1          -0.004981999   -0.001882876   -0.005586199
      5        1          -0.004981999    0.001882876   -0.005586199
      6        1          -0.002346791    0.001882876   -0.007107637
      7        1          -0.002346791   -0.001882876   -0.007107637
 -------------------------------------------------------------------
 Cartesian Forces:  Max     0.020578392 RMS     0.007280531

 GradGradGradGradGradGradGradGradGradGradGradGradGradGradGradGradGradGrad
 Berny optimization.
 Using GEDIIS/GDIIS optimizer.
 FormGI is forming the generalized inverse of G from B-inverse, IUseBI=4.
 Internal  Forces:  Max     0.015138672 RMS     0.005636483
 Search for a local minimum.
 Step number   3 out of a maximum of   31
 All quantities printed in internal units (Hartrees-Bohrs-Radians)
 Mixed Optimization -- RFO/linear search
 Update second derivatives using D2CorX and points    2    3
 DE= -1.91D-02 DEPred=-1.49D-02 R= 1.28D+00
 TightC=F SS=  1.41D+00  RLast= 7.05D-01 DXNew= 8.4853D-01 2.1145D+00
 Trust test= 1.28D+00 RLast= 7.05D-01 DXMaxT set to 8.49D-01
 ITU=  1  1  0
 Use linear search instead of GDIIS.
     Eigenvalues ---    0.05041   0.06561   0.07400   0.16000   0.16000
     Eigenvalues ---    0.16000   0.16000   0.16253   0.42108   0.47688
     Eigenvalues ---    0.47688   0.47688   0.54783   0.64500   0.66839
 RFO step:  Lambda=-3.12130812D-03 EMin= 5.04052875D-02
 Quartic linear search produced a step of -0.18722.
 Iteration  1 RMS(Cart)=  0.05780896 RMS(Int)=  0.00337719
 Iteration  2 RMS(Cart)=  0.00313433 RMS(Int)=  0.00065930
 Iteration  3 RMS(Cart)=  0.00000597 RMS(Int)=  0.00065928
 Iteration  4 RMS(Cart)=  0.00000000 RMS(Int)=  0.00065928
 ClnCor:  largest displacement from symmetrization is 4.81D-09 for atom     3.
 Variable       Old X    -DE/DX   Delta X   Delta X   Delta X     New X
                                 (Linear)    (Quad)   (Total)
    R1        2.67938   0.00183  -0.02214   0.02559   0.00351   2.68289
    R2        2.67938   0.00183  -0.02214   0.02559   0.00351   2.68289
    R3        2.72919   0.01514  -0.02323   0.04714   0.02378   2.75298
    R4        2.05911  -0.00289  -0.01404   0.01042  -0.00361   2.05549
    R5        2.05911  -0.00289  -0.01404   0.01042  -0.00361   2.05549
    R6        2.05911  -0.00289  -0.01404   0.01042  -0.00361   2.05549
    R7        2.05911  -0.00289  -0.01404   0.01042  -0.00361   2.05549
    A1        2.06225  -0.00193  -0.02240  -0.02112  -0.04314   2.01911
    A2        2.06225  -0.00193  -0.02240  -0.02112  -0.04314   2.01911
    A3        2.05207   0.00519   0.01981   0.02251   0.04340   2.09547
    A4        2.05207   0.00519   0.01981   0.02251   0.04340   2.09547
    A5        2.00517  -0.00266  -0.01070   0.00140  -0.00793   1.99724
    A6        2.06225  -0.00193  -0.02240  -0.02112  -0.04314   2.01911
    A7        2.06225  -0.00193  -0.02240  -0.02112  -0.04314   2.01911
    A8        2.05207   0.00519   0.01981   0.02251   0.04340   2.09547
    A9        2.05207   0.00519   0.01981   0.02251   0.04340   2.09547
   A10        2.00517  -0.00266  -0.01070   0.00140  -0.00793   1.99724
    D1        2.51212   0.01143   0.07516   0.07495   0.14990   2.66201
    D2       -0.00000   0.00000   0.00000  -0.00000   0.00000   0.00000
    D3        0.00000  -0.00000   0.00000   0.00000  -0.00000   0.00000
    D4       -2.51212  -0.01143  -0.07516  -0.07495  -0.14990  -2.66201
         Item               Value     Threshold  Converged?
 Maximum Force            0.015139     0.000450     NO 
 RMS     Force            0.005636     0.000300     NO 
 Maximum Displacement     0.107285     0.001800     NO 
 RMS     Displacement     0.056507     0.001200     NO 
 Predicted change in Energy=-2.567367D-03
 GradGradGradGradGradGradGradGradGradGradGradGradGradGradGradGradGradGrad

                          Input orientation:                          
 ---------------------------------------------------------------------
 Center     Atomic      Atomic             Coordinates (Angstroms)
 Number     Number       Type             X           Y           Z
 ---------------------------------------------------------------------
      1          8           0       -0.090628    0.000000   -0.156972
      2          6           0       -0.112135   -0.000000    1.262590
      3          6           0        1.149502    0.000000    0.534184
      4          1           0       -0.472216    0.914472    1.728654
      5          1           0       -0.472216   -0.914472    1.728654
      6          1           0        1.733166   -0.914472    0.455376
      7          1           0        1.733166    0.914472    0.455376
 ---------------------------------------------------------------------
                    Distance matrix (angstroms):
                    1          2          3          4          5
     1  O    0.000000
     2  C    1.419725   0.000000
     3  C    1.419725   1.456813   0.000000
     4  H    2.130129   1.087719   2.212010   0.000000
     5  H    2.130129   1.087719   2.212010   1.828943   0.000000
     6  H    2.130129   2.212010   1.087719   3.135280   2.546555
     7  H    2.130129   2.212010   1.087719   2.546555   3.135280
                    6          7
     6  H    0.000000
     7  H    1.828943   0.000000
 Stoichiometry    C2H4O
 Framework group  C2V[C2(O),SGV(C2),X(H4)]
 Deg. of freedom     5
 Full point group                 C2V     NOp   4
 Largest Abelian subgroup         C2V     NOp   4
 Largest concise Abelian subgroup C2V     NOp   4
                         Standard orientation:                         
 ---------------------------------------------------------------------
 Center     Atomic      Atomic             Coordinates (Angstroms)
 Number     Number       Type             X           Y           Z
 ---------------------------------------------------------------------
      1          8           0        0.000000    0.000000    0.849679
      2          6           0        0.000000    0.728406   -0.368944
      3          6           0       -0.000000   -0.728406   -0.368944
      4          1           0       -0.914472    1.273278   -0.592526
      5          1           0        0.914472    1.273278   -0.592526
      6          1           0        0.914472   -1.273278   -0.592526
      7          1           0       -0.914472   -1.273278   -0.592526
 ---------------------------------------------------------------------
 Rotational constants (GHZ):          25.9489705          22.3216815          14.2866622
 Basis read from rwf:  (5D, 7F)
 There are    55 symmetry adapted cartesian basis functions of A1  symmetry.
 There are    29 symmetry adapted cartesian basis functions of A2  symmetry.
 There are    34 symmetry adapted cartesian basis functions of B1  symmetry.
 There are    47 symmetry adapted cartesian basis functions of B2  symmetry.
 There are    47 symmetry adapted basis functions of A1  symmetry.
 There are    27 symmetry adapted basis functions of A2  symmetry.
 There are    31 symmetry adapted basis functions of B1  symmetry.
 There are    41 symmetry adapted basis functions of B2  symmetry.
   146 basis functions,   225 primitive gaussians,   165 cartesian basis functions
    12 alpha electrons       12 beta electrons
       nuclear repulsion energy        75.5580250897 Hartrees.
 NAtoms=    7 NActive=    7 NUniq=    3 SFac= 4.00D+00 NAtFMM=   60 NAOKFM=F Big=F
 Integral buffers will be    131072 words long.
 Raffenetti 2 integral format.
 Two-electron integral symmetry is turned on.
 One-electron integrals computed using PRISM.
 NBasis=   146 RedAO= T EigKep=  6.31D-04  NBF=    47    27    31    41
 NBsUse=   146 1.00D-06 EigRej= -1.00D+00 NBFU=    47    27    31    41
 Initial guess from the checkpoint file:  "/wrk/irikura/Gau-22952.chk"
 B after Tr=     0.000000    0.000000   -0.000000
         Rot=    1.000000   -0.000000    0.000000    0.000000 Ang=   0.00 deg.
 Initial guess orbital symmetries:
       Occupied  (A1) (A1) (B2) (A1) (A1) (B2) (B1) (A1) (B2) (A2)
                 (A1) (B1)
       Virtual   (A1) (B2) (B1) (A1) (B2) (A2) (A1) (B2) (B2) (A1)
                 (B1) (B1) (A1) (A2) (A1) (B2) (A1) (A2) (B2) (B1)
                 (B2) (B2) (B1) (A1) (A2) (A1) (B1) (A1) (B2) (A2)
                 (A1) (B1) (A1) (B2) (A2) (B2) (A2) (A1) (B1) (B2)
                 (B1) (A1) (A1) (B2) (B1) (B2) (A1) (A2) (B2) (B2)
                 (A1) (A2) (B1) (A1) (B2) (A1) (A2) (B1) (B2) (B1)
                 (A2) (A1) (B2) (A1) (A1) (B1) (A1) (B2) (B1) (A2)
                 (B1) (A1) (A2) (B2) (A2) (B2) (B1) (B2) (B1) (A1)
                 (A2) (A1) (B1) (A1) (B1) (B2) (A1) (B2) (A2) (B1)
                 (A1) (B2) (A2) (A2) (A1) (B2) (B2) (B1) (A1) (A2)
                 (B2) (B1) (B1) (A1) (B2) (A2) (B2) (A2) (A1) (A1)
                 (B2) (A1) (B1) (A1) (A1) (B2) (B1) (A2) (B2) (B1)
                 (B2) (A1) (A2) (B2) (A2) (B2) (B1) (A1) (A2) (A2)
                 (A1) (B1) (B2) (A1)
 ExpMin= 7.42D-02 ExpMax= 1.36D+04 ExpMxC= 4.64D+02 IAcc=3 IRadAn=         5 AccDes= 0.00D+00
 Harris functional with IExCor=  402 and IRadAn=       5 diagonalized for initial guess.
 HarFok:  IExCor=  402 AccDes= 0.00D+00 IRadAn=         5 IDoV= 1 UseB2=F ITyADJ=14
 ICtDFT=  3500011 ScaDFX=  1.000000  1.000000  1.000000  1.000000
 FoFCou: FMM=F IPFlag=           0 FMFlag=      100000 FMFlg1=           0
         NFxFlg=           0 DoJE=T BraDBF=F KetDBF=T FulRan=T
         wScrn=  0.000000 ICntrl=       500 IOpCl=  0 I1Cent=   200000004 NGrid=           0
         NMat0=    1 NMatS0=      1 NMatT0=    0 NMatD0=    1 NMtDS0=    0 NMtDT0=    0
 Petite list used in FoFCou.
 Keep R1 ints in memory in symmetry-blocked form, NReq=72045333.
 Requested convergence on RMS density matrix=1.00D-08 within 128 cycles.
 Requested convergence on MAX density matrix=1.00D-06.
 Requested convergence on             energy=1.00D-06.
 No special actions if energy rises.
 Integral accuracy reduced to 1.0D-05 until final iterations.
 Initial convergence to 1.0D-05 achieved.  Increase integral accuracy.
 SCF Done:  E(RB3LYP) =  -153.855170983     A.U. after   10 cycles
            NFock= 10  Conv=0.62D-09     -V/T= 2.0035
 Calling FoFJK, ICntrl=      2127 FMM=F ISym2X=1 I1Cent= 0 IOpClX= 0 NMat=1 NMatS=1 NMatT=0.
 ***** Axes restored to original set *****
 -------------------------------------------------------------------
 Center     Atomic                   Forces (Hartrees/Bohr)
 Number     Number              X              Y              Z
 -------------------------------------------------------------------
      1        8          -0.003333051    0.000000000   -0.005773013
      2        6          -0.004905126   -0.000000000    0.008666151
      3        6           0.009957670   -0.000000000    0.000085112
      4        1           0.001131369   -0.000743323   -0.001645946
      5        1           0.001131369    0.000743323   -0.001645946
      6        1          -0.001991116    0.000743323    0.000156821
      7        1          -0.001991116   -0.000743323    0.000156821
 -------------------------------------------------------------------
 Cartesian Forces:  Max     0.009957670 RMS     0.003524934

 GradGradGradGradGradGradGradGradGradGradGradGradGradGradGradGradGradGrad
 Berny optimization.
 Using GEDIIS/GDIIS optimizer.
 FormGI is forming the generalized inverse of G from B-inverse, IUseBI=4.
 Internal  Forces:  Max     0.003810544 RMS     0.001662032
 Search for a local minimum.
 Step number   4 out of a maximum of   31
 All quantities printed in internal units (Hartrees-Bohrs-Radians)
 Mixed Optimization -- RFO/linear search
 Update second derivatives using D2CorX and points    2    3    4
 DE= -2.56D-03 DEPred=-2.57D-03 R= 9.96D-01
 TightC=F SS=  1.41D+00  RLast= 2.46D-01 DXNew= 1.4270D+00 7.3902D-01
 Trust test= 9.96D-01 RLast= 2.46D-01 DXMaxT set to 8.49D-01
 ITU=  1  1  1  0
 Use linear search instead of GDIIS.
     Eigenvalues ---    0.04959   0.06203   0.06839   0.16000   0.16000
     Eigenvalues ---    0.16000   0.16000   0.17378   0.41700   0.47688
     Eigenvalues ---    0.47688   0.47688   0.51323   0.63347   0.67310
 RFO step:  Lambda=-1.55891334D-04 EMin= 4.95880536D-02
 Quartic linear search produced a step of  0.02681.
 Iteration  1 RMS(Cart)=  0.00312109 RMS(Int)=  0.00006957
 Iteration  2 RMS(Cart)=  0.00001370 RMS(Int)=  0.00006826
 Iteration  3 RMS(Cart)=  0.00000000 RMS(Int)=  0.00006826
 ClnCor:  largest displacement from symmetrization is 7.44D-09 for atom     7.
 Variable       Old X    -DE/DX   Delta X   Delta X   Delta X     New X
                                 (Linear)    (Quad)   (Total)
    R1        2.68289   0.00381   0.00009   0.00794   0.00803   2.69092
    R2        2.68289   0.00381   0.00009   0.00794   0.00803   2.69092
    R3        2.75298   0.00312   0.00064   0.00771   0.00835   2.76133
    R4        2.05549  -0.00170  -0.00010  -0.00258  -0.00268   2.05281
    R5        2.05549  -0.00170  -0.00010  -0.00258  -0.00268   2.05281
    R6        2.05549  -0.00170  -0.00010  -0.00258  -0.00268   2.05281
    R7        2.05549  -0.00170  -0.00010  -0.00258  -0.00268   2.05281
    A1        2.01911  -0.00045  -0.00116  -0.00368  -0.00487   2.01424
    A2        2.01911  -0.00045  -0.00116  -0.00368  -0.00487   2.01424
    A3        2.09547  -0.00076   0.00116  -0.00473  -0.00368   2.09179
    A4        2.09547  -0.00076   0.00116  -0.00473  -0.00368   2.09179
    A5        1.99724   0.00147  -0.00021   0.01026   0.00991   2.00715
    A6        2.01911  -0.00045  -0.00116  -0.00368  -0.00487   2.01424
    A7        2.01911  -0.00045  -0.00116  -0.00368  -0.00487   2.01424
    A8        2.09547  -0.00076   0.00116  -0.00473  -0.00368   2.09179
    A9        2.09547  -0.00076   0.00116  -0.00473  -0.00368   2.09179
   A10        1.99724   0.00147  -0.00021   0.01026   0.00991   2.00715
    D1        2.66201   0.00025   0.00402   0.00463   0.00868   2.67069
    D2        0.00000   0.00000   0.00000   0.00000  -0.00000   0.00000
    D3       -0.00000  -0.00000   0.00000  -0.00000   0.00000   0.00000
    D4       -2.66201  -0.00025  -0.00402  -0.00463  -0.00868  -2.67069
         Item               Value     Threshold  Converged?
 Maximum Force            0.003811     0.000450     NO 
 RMS     Force            0.001662     0.000300     NO 
 Maximum Displacement     0.006480     0.001800     NO 
 RMS     Displacement     0.003117     0.001200     NO 
 Predicted change in Energy=-7.932468D-05
 GradGradGradGradGradGradGradGradGradGradGradGradGradGradGradGradGradGrad

                          Input orientation:                          
 ---------------------------------------------------------------------
 Center     Atomic      Atomic             Coordinates (Angstroms)
 Number     Number       Type             X           Y           Z
 ---------------------------------------------------------------------
      1          8           0       -0.091099    0.000000   -0.157788
      2          6           0       -0.112707   -0.000000    1.266019
      3          6           0        1.152758    0.000000    0.535403
      4          1           0       -0.471067    0.916183    1.726713
      5          1           0       -0.471067   -0.916183    1.726713
      6          1           0        1.730911   -0.916183    0.455401
      7          1           0        1.730911    0.916183    0.455401
 ---------------------------------------------------------------------
                    Distance matrix (angstroms):
                    1          2          3          4          5
     1  O    0.000000
     2  C    1.423972   0.000000
     3  C    1.423972   1.461233   0.000000
     4  H    2.129581   1.086302   2.212560   0.000000
     5  H    2.129581   1.086302   2.212560   1.832366   0.000000
     6  H    2.129581   2.212560   1.086302   3.134088   2.542625
     7  H    2.129581   2.212560   1.086302   2.542625   3.134088
                    6          7
     6  H    0.000000
     7  H    1.832366   0.000000
 Stoichiometry    C2H4O
 Framework group  C2V[C2(O),SGV(C2),X(H4)]
 Deg. of freedom     5
 Full point group                 C2V     NOp   4
 Largest Abelian subgroup         C2V     NOp   4
 Largest concise Abelian subgroup C2V     NOp   4
                         Standard orientation:                         
 ---------------------------------------------------------------------
 Center     Atomic      Atomic             Coordinates (Angstroms)
 Number     Number       Type             X           Y           Z
 ---------------------------------------------------------------------
      1          8           0       -0.000000    0.000000    0.851465
      2          6           0       -0.000000    0.730617   -0.370784
      3          6           0       -0.000000   -0.730617   -0.370784
      4          1           0       -0.916183    1.271313   -0.590577
      5          1           0        0.916183    1.271313   -0.590577
      6          1           0        0.916183   -1.271313   -0.590577
      7          1           0       -0.916183   -1.271313   -0.590577
 ---------------------------------------------------------------------
 Rotational constants (GHZ):          25.8356402          22.2530128          14.2343351
 Basis read from rwf:  (5D, 7F)
 There are    55 symmetry adapted cartesian basis functions of A1  symmetry.
 There are    29 symmetry adapted cartesian basis functions of A2  symmetry.
 There are    34 symmetry adapted cartesian basis functions of B1  symmetry.
 There are    47 symmetry adapted cartesian basis functions of B2  symmetry.
 There are    47 symmetry adapted basis functions of A1  symmetry.
 There are    27 symmetry adapted basis functions of A2  symmetry.
 There are    31 symmetry adapted basis functions of B1  symmetry.
 There are    41 symmetry adapted basis functions of B2  symmetry.
   146 basis functions,   225 primitive gaussians,   165 cartesian basis functions
    12 alpha electrons       12 beta electrons
       nuclear repulsion energy        75.4272865371 Hartrees.
 NAtoms=    7 NActive=    7 NUniq=    3 SFac= 4.00D+00 NAtFMM=   60 NAOKFM=F Big=F
 Integral buffers will be    131072 words long.
 Raffenetti 2 integral format.
 Two-electron integral symmetry is turned on.
 One-electron integrals computed using PRISM.
 NBasis=   146 RedAO= T EigKep=  6.39D-04  NBF=    47    27    31    41
 NBsUse=   146 1.00D-06 EigRej= -1.00D+00 NBFU=    47    27    31    41
 Initial guess from the checkpoint file:  "/wrk/irikura/Gau-22952.chk"
 B after Tr=    -0.000000    0.000000    0.000000
         Rot=    1.000000   -0.000000    0.000000   -0.000000 Ang=   0.00 deg.
 Initial guess orbital symmetries:
       Occupied  (A1) (A1) (B2) (A1) (A1) (B2) (B1) (A1) (B2) (A2)
                 (A1) (B1)
       Virtual   (A1) (B2) (B1) (A1) (B2) (A2) (A1) (B2) (B2) (B1)
                 (A1) (B1) (A1) (A1) (A2) (B2) (A1) (B2) (A2) (B1)
                 (B2) (B2) (A1) (B1) (A2) (A1) (A1) (B1) (A2) (B2)
                 (A1) (B1) (B2) (A1) (A2) (B2) (A1) (B1) (A2) (B2)
                 (B1) (A1) (B2) (A1) (B2) (B1) (A2) (B2) (A1) (B2)
                 (A2) (A1) (B1) (A1) (B2) (A1) (A2) (B1) (B2) (B1)
                 (A1) (A2) (B2) (A1) (A1) (B1) (B2) (A1) (B1) (B1)
                 (A2) (A1) (A2) (B2) (A2) (B2) (B1) (B2) (A1) (B1)
                 (A2) (A1) (B1) (B2) (B1) (A1) (A1) (A2) (B2) (B2)
                 (A1) (B1) (A2) (A2) (A1) (B2) (B1) (A1) (B2) (A2)
                 (B1) (B2) (A1) (B2) (B1) (A2) (B2) (A2) (A1) (A1)
                 (B2) (A1) (B1) (A1) (A1) (B2) (A2) (B1) (B2) (B1)
                 (B2) (A2) (A1) (B2) (A2) (B1) (B2) (A1) (A2) (A2)
                 (B1) (A1) (B2) (A1)
 Keep R1 ints in memory in symmetry-blocked form, NReq=72045333.
 Requested convergence on RMS density matrix=1.00D-08 within 128 cycles.
 Requested convergence on MAX density matrix=1.00D-06.
 Requested convergence on             energy=1.00D-06.
 No special actions if energy rises.
 SCF Done:  E(RB3LYP) =  -153.855286527     A.U. after    7 cycles
            NFock=  7  Conv=0.57D-08     -V/T= 2.0036
 Calling FoFJK, ICntrl=      2127 FMM=F ISym2X=1 I1Cent= 0 IOpClX= 0 NMat=1 NMatS=1 NMatT=0.
 ***** Axes restored to original set *****
 -------------------------------------------------------------------
 Center     Atomic                   Forces (Hartrees/Bohr)
 Number     Number              X              Y              Z
 -------------------------------------------------------------------
      1        8          -0.001628871    0.000000000   -0.002821287
      2        6          -0.001954430   -0.000000000    0.003903648
      3        6           0.004357874    0.000000000    0.000259238
      4        1           0.000682116   -0.000514996   -0.000841020
      5        1           0.000682116    0.000514996   -0.000841020
      6        1          -0.001069403    0.000514996    0.000170220
      7        1          -0.001069403   -0.000514996    0.000170220
 -------------------------------------------------------------------
 Cartesian Forces:  Max     0.004357874 RMS     0.001610689

 GradGradGradGradGradGradGradGradGradGradGradGradGradGradGradGradGradGrad
 Berny optimization.
 Using GEDIIS/GDIIS optimizer.
 FormGI is forming the generalized inverse of G from B-inverse, IUseBI=4.
 Internal  Forces:  Max     0.001858834 RMS     0.000806506
 Search for a local minimum.
 Step number   5 out of a maximum of   31
 All quantities printed in internal units (Hartrees-Bohrs-Radians)
 Mixed Optimization -- En-DIIS/RFO-DIIS
 Update second derivatives using D2CorX and points    2    3    4    5
 DE= -1.16D-04 DEPred=-7.93D-05 R= 1.46D+00
 TightC=F SS=  1.41D+00  RLast= 2.69D-02 DXNew= 1.4270D+00 8.0679D-02
 Trust test= 1.46D+00 RLast= 2.69D-02 DXMaxT set to 8.49D-01
 ITU=  1  1  1  1  0
 Use linear search instead of GDIIS.
     Eigenvalues ---    0.04958   0.06199   0.06378   0.13508   0.16000
     Eigenvalues ---    0.16000   0.16000   0.16000   0.37863   0.45759
     Eigenvalues ---    0.47688   0.47688   0.47688   0.63413   0.67453
 RFO step:  Lambda=-6.06959415D-06 EMin= 4.95844131D-02
 Quartic linear search produced a step of  0.84665.
 Iteration  1 RMS(Cart)=  0.00330930 RMS(Int)=  0.00001208
 Iteration  2 RMS(Cart)=  0.00001179 RMS(Int)=  0.00000412
 Iteration  3 RMS(Cart)=  0.00000000 RMS(Int)=  0.00000412
 ClnCor:  largest displacement from symmetrization is 1.63D-08 for atom     7.
 Variable       Old X    -DE/DX   Delta X   Delta X   Delta X     New X
                                 (Linear)    (Quad)   (Total)
    R1        2.69092   0.00186   0.00679   0.00023   0.00702   2.69794
    R2        2.69092   0.00186   0.00679   0.00023   0.00702   2.69794
    R3        2.76133   0.00072   0.00707  -0.00194   0.00513   2.76646
    R4        2.05281  -0.00102  -0.00227  -0.00096  -0.00323   2.04959
    R5        2.05281  -0.00102  -0.00227  -0.00096  -0.00323   2.04959
    R6        2.05281  -0.00102  -0.00227  -0.00096  -0.00323   2.04959
    R7        2.05281  -0.00102  -0.00227  -0.00096  -0.00323   2.04959
    A1        2.01424  -0.00024  -0.00412   0.00032  -0.00381   2.01043
    A2        2.01424  -0.00024  -0.00412   0.00032  -0.00381   2.01043
    A3        2.09179  -0.00042  -0.00312  -0.00095  -0.00407   2.08772
    A4        2.09179  -0.00042  -0.00312  -0.00095  -0.00407   2.08772
    A5        2.00715   0.00075   0.00839   0.00090   0.00929   2.01643
    A6        2.01424  -0.00024  -0.00412   0.00032  -0.00381   2.01043
    A7        2.01424  -0.00024  -0.00412   0.00032  -0.00381   2.01043
    A8        2.09179  -0.00042  -0.00312  -0.00095  -0.00407   2.08772
    A9        2.09179  -0.00042  -0.00312  -0.00095  -0.00407   2.08772
   A10        2.00715   0.00075   0.00839   0.00090   0.00929   2.01643
    D1        2.67069  -0.00002   0.00735  -0.00213   0.00521   2.67590
    D2        0.00000   0.00000   0.00000  -0.00000  -0.00000   0.00000
    D3       -0.00000  -0.00000   0.00000   0.00000   0.00000   0.00000
    D4       -2.67069   0.00002  -0.00735   0.00213  -0.00521  -2.67590
[...]
     6   1     0.08  -0.02   0.49     0.04   0.30  -0.39     0.02   0.18  -0.46
     7   1     0.08   0.02  -0.49    -0.04   0.30  -0.39    -0.02   0.18  -0.46
                      7                      8                      9
                     B1                     A2                     A1
 Frequencies --   1170.2508              1177.3506              1298.4317
 Red. masses --      1.2683                 1.4162                 2.6305
 Frc consts  --      1.0234                 1.1566                 2.6129
 IR Inten    --      3.7840                 0.0000                15.3393
  Atom  AN      X      Y      Z        X      Y      Z        X      Y      Z
     1   8    -0.09  -0.00   0.00     0.00   0.00   0.00    -0.00   0.00   0.14
     2   6     0.08   0.00   0.00    -0.14   0.00  -0.00     0.00   0.25  -0.02
     3   6     0.08   0.00  -0.00     0.14  -0.00  -0.00    -0.00  -0.25  -0.02
     4   1    -0.11  -0.17   0.45     0.13   0.47   0.03     0.06   0.24  -0.39
     5   1    -0.11   0.17  -0.45     0.13  -0.47  -0.03    -0.06   0.24  -0.39
     6   1    -0.11  -0.17  -0.45    -0.13  -0.47   0.03    -0.06  -0.24  -0.39
     7   1    -0.11   0.17   0.45    -0.13   0.47  -0.03     0.06  -0.24  -0.39
                     10                     11                     12
                     B2                     A1                     B2
 Frequencies --   1506.8383              1539.1771              3088.2294
 Red. masses --      1.0743                 1.2988                 1.0438
 Frc consts  --      1.4371                 1.8129                 5.8651
 IR Inten    --      0.0000                 3.0770                38.9713
  Atom  AN      X      Y      Z        X      Y      Z        X      Y      Z
     1   8     0.00  -0.02   0.00    -0.00  -0.00   0.03    -0.00   0.00   0.00
     2   6    -0.00  -0.05   0.01     0.00   0.10  -0.05     0.00   0.04  -0.01
     3   6    -0.00  -0.05  -0.01    -0.00  -0.10  -0.05     0.00   0.04   0.01
     4   1     0.28   0.37  -0.18    -0.30  -0.35   0.18     0.43  -0.24   0.09
     5   1    -0.28   0.37  -0.18     0.30  -0.35   0.18    -0.43  -0.24   0.09
     6   1     0.28   0.37   0.18     0.30   0.35   0.18     0.43  -0.24  -0.09
     7   1    -0.28   0.37   0.18    -0.30   0.35   0.18    -0.43  -0.24  -0.09
                     13                     14                     15
                     A1                     A2                     B1
 Frequencies --   3094.3345              3168.1421              3183.2385
 Red. masses --      1.0561                 1.1212                 1.1211
 Frc consts  --      5.9580                 6.6303                 6.6934
 IR Inten    --     14.9936                 0.0000                43.9712
  Atom  AN      X      Y      Z        X      Y      Z        X      Y      Z
     1   8     0.00   0.00  -0.00    -0.00  -0.00   0.00     0.00  -0.00  -0.00
     2   6     0.00   0.04  -0.02    -0.07   0.00  -0.00    -0.07   0.00  -0.00
     3   6    -0.00  -0.04  -0.02     0.07  -0.00  -0.00    -0.07   0.00   0.00
     4   1     0.43  -0.23   0.09     0.42  -0.24   0.10     0.42  -0.25   0.09
     5   1    -0.43  -0.23   0.09     0.42   0.24  -0.10     0.42   0.25  -0.09
     6   1    -0.43   0.23   0.09    -0.42   0.24   0.10     0.42  -0.25  -0.09
     7   1     0.43   0.23   0.09    -0.42  -0.24  -0.10     0.42   0.25   0.09

 -------------------
 - Thermochemistry -
 -------------------
 Temperature   298.150 Kelvin.  Pressure   1.00000 Atm.
 Atom     1 has atomic number  8 and mass  15.99491
 Atom     2 has atomic number  6 and mass  12.00000
 Atom     3 has atomic number  6 and mass  12.00000
 Atom     4 has atomic number  1 and mass   1.00783
 Atom     5 has atomic number  1 and mass   1.00783
 Atom     6 has atomic number  1 and mass   1.00783
 Atom     7 has atomic number  1 and mass   1.00783
 Molecular mass:    44.02621 amu.
 Principal axes and moments of inertia in atomic units:
                           1         2         3
     Eigenvalues --    70.19724  81.13869 127.10476
           X            0.00000   0.00000   1.00000
           Y            1.00000   0.00000  -0.00000
           Z           -0.00000   1.00000  -0.00000
 This molecule is an asymmetric top.
 Rotational symmetry number  2.
 Rotational temperatures (Kelvin)      1.23387     1.06748     0.68144
 Rotational constants (GHZ):          25.70957    22.24267    14.19885
 Zero-point vibrational energy     150359.4 (Joules/Mol)
                                   35.93677 (Kcal/Mol)
 Vibrational temperatures:   1178.16  1217.78  1278.25  1506.69  1655.10
          (Kelvin)           1670.27  1683.73  1693.94  1868.15  2168.00
                             2214.53  4443.27  4452.06  4558.25  4579.97
 
 Zero-point correction=                           0.057269 (Hartree/Particle)
 Thermal correction to Energy=                    0.060425
 Thermal correction to Enthalpy=                  0.061369
 Thermal correction to Gibbs Free Energy=         0.033843
 Sum of electronic and zero-point Energies=           -153.798053
 Sum of electronic and thermal Energies=              -153.794896
 Sum of electronic and thermal Enthalpies=            -153.793952
 Sum of electronic and thermal Free Energies=         -153.821478
 
                     E (Thermal)             CV                S
                      KCal/Mol        Cal/Mol-Kelvin    Cal/Mol-Kelvin
 Total                   37.917              9.208             57.933
 Electronic               0.000              0.000              0.000
 Translational            0.889              2.981             37.273
 Rotational               0.889              2.981             19.832
 Vibrational             36.140              3.246              0.829
                       Q            Log10(Q)             Ln(Q)
 Total Bot       0.271113D-15        -15.566850        -35.843996
 Total V=0       0.595642D+11         10.774986         24.810321
 Vib (Bot)       0.490297D-26        -26.309541        -60.579957
 Vib (V=0)       0.107719D+01          0.032294          0.074360
 Electronic      0.100000D+01          0.000000          0.000000
 Translational   0.114821D+08          7.060021         16.256299
 Rotational      0.481582D+04          3.682671          8.479662
 ***** Axes restored to original set *****
 -------------------------------------------------------------------
 Center     Atomic                   Forces (Hartrees/Bohr)
 Number     Number              X              Y              Z
 -------------------------------------------------------------------
      1        8          -0.000087214    0.000000000   -0.000151060
      2        6           0.000211731   -0.000000000   -0.000020228
      3        6          -0.000123383   -0.000000000    0.000173251
      4        1          -0.000003871   -0.000007756    0.000001581
      5        1          -0.000003871    0.000007756    0.000001581
      6        1           0.000003305    0.000007756   -0.000002562
      7        1           0.000003305   -0.000007756   -0.000002562
 -------------------------------------------------------------------
 Cartesian Forces:  Max     0.000211731 RMS     0.000075974
 FormGI is forming the generalized inverse of G from B-inverse, IUseBI=4.

 GradGradGradGradGradGradGradGradGradGradGradGradGradGradGradGradGradGrad
 Berny optimization.
 Internal  Forces:  Max     0.000231582 RMS     0.000059979
 Search for a local minimum.
 Step number   1 out of a maximum of    2
 All quantities printed in internal units (Hartrees-Bohrs-Radians)
 Second derivative matrix not updated -- analytic derivatives used.
 ITU=  0
     Eigenvalues ---    0.02741   0.03912   0.05669   0.09480   0.10854
     Eigenvalues ---    0.11058   0.12950   0.21743   0.26966   0.29516
     Eigenvalues ---    0.33968   0.34351   0.34547   0.35612   0.36420
 Angle between quadratic step and forces=  19.27 degrees.
 Linear search not attempted -- first point.
 Iteration  1 RMS(Cart)=  0.00018448 RMS(Int)=  0.00000002
 Iteration  2 RMS(Cart)=  0.00000002 RMS(Int)=  0.00000001
 ClnCor:  largest displacement from symmetrization is 6.05D-09 for atom     7.
 Variable       Old X    -DE/DX   Delta X   Delta X   Delta X     New X
                                 (Linear)    (Quad)   (Total)
    R1        2.69823   0.00010   0.00000   0.00038   0.00038   2.69861
    R2        2.69823   0.00010   0.00000   0.00038   0.00038   2.69861
    R3        2.76568  -0.00023   0.00000  -0.00072  -0.00072   2.76496
    R4        2.04932  -0.00000   0.00000  -0.00001  -0.00001   2.04931
    R5        2.04932  -0.00000   0.00000  -0.00001  -0.00001   2.04931
    R6        2.04932  -0.00000   0.00000  -0.00001  -0.00001   2.04931
    R7        2.04932  -0.00000   0.00000  -0.00001  -0.00001   2.04931
    A1        2.01041  -0.00002   0.00000  -0.00007  -0.00007   2.01034
    A2        2.01041  -0.00002   0.00000  -0.00007  -0.00007   2.01034
    A3        2.08753   0.00001   0.00000   0.00012   0.00012   2.08765
    A4        2.08753   0.00001   0.00000   0.00012   0.00012   2.08765
    A5        2.01665  -0.00002   0.00000  -0.00019  -0.00019   2.01646
    A6        2.01041  -0.00002   0.00000  -0.00007  -0.00007   2.01034
    A7        2.01041  -0.00002   0.00000  -0.00007  -0.00007   2.01034
    A8        2.08753   0.00001   0.00000   0.00012   0.00012   2.08765
    A9        2.08753   0.00001   0.00000   0.00012   0.00012   2.08765
   A10        2.01665  -0.00002   0.00000  -0.00019  -0.00019   2.01646
    D1        2.67555  -0.00001   0.00000   0.00008   0.00008   2.67562
    D2        0.00000  -0.00000   0.00000  -0.00000  -0.00000  -0.00000
    D3       -0.00000   0.00000   0.00000  -0.00000   0.00000   0.00000
    D4       -2.67555   0.00001   0.00000  -0.00008  -0.00008  -2.67562
         Item               Value     Threshold  Converged?
 Maximum Force            0.000232     0.000450     YES
 RMS     Force            0.000060     0.000300     YES
 Maximum Displacement     0.000440     0.001800     YES
 RMS     Displacement     0.000184     0.001200     YES
 Predicted change in Energy=-1.277878D-07
 Optimization completed.
    -- Stationary point found.
                           ----------------------------
                           !   Optimized Parameters   !
                           ! (Angstroms and Degrees)  !
 --------------------------                            --------------------------
 ! Name  Definition              Value          Derivative Info.                !
 --------------------------------------------------------------------------------
 ! R1    R(1,2)                  1.4278         -DE/DX =    0.0001              !
 ! R2    R(1,3)                  1.4278         -DE/DX =    0.0001              !
 ! R3    R(2,3)                  1.4635         -DE/DX =   -0.0002              !
 ! R4    R(2,4)                  1.0845         -DE/DX =    0.0                 !
 ! R5    R(2,5)                  1.0845         -DE/DX =    0.0                 !
 ! R6    R(3,6)                  1.0845         -DE/DX =    0.0                 !
 ! R7    R(3,7)                  1.0845         -DE/DX =    0.0                 !
 ! A1    A(1,2,4)              115.1883         -DE/DX =    0.0                 !
 ! A2    A(1,2,5)              115.1883         -DE/DX =    0.0                 !
 ! A3    A(3,2,4)              119.6065         -DE/DX =    0.0                 !
 ! A4    A(3,2,5)              119.6065         -DE/DX =    0.0                 !
 ! A5    A(4,2,5)              115.5457         -DE/DX =    0.0                 !
 ! A6    A(1,3,6)              115.1883         -DE/DX =    0.0                 !
 ! A7    A(1,3,7)              115.1883         -DE/DX =    0.0                 !
 ! A8    A(2,3,6)              119.6065         -DE/DX =    0.0                 !
 ! A9    A(2,3,7)              119.6065         -DE/DX =    0.0                 !
 ! A10   A(6,3,7)              115.5457         -DE/DX =    0.0                 !
 ! D1    D(4,2,3,6)            153.2976         -DE/DX =    0.0                 !
 ! D2    D(4,2,3,7)              0.0            -DE/DX =    0.0                 !
 ! D3    D(5,2,3,6)              0.0            -DE/DX =    0.0                 !
 ! D4    D(5,2,3,7)           -153.2976         -DE/DX =    0.0                 !
 --------------------------------------------------------------------------------
 GradGradGradGradGradGradGradGradGradGradGradGradGradGradGradGradGradGrad


 ----------------------------------------------------------------------

 Electric dipole moment (input orientation):
 (Debye = 10**-18 statcoulomb cm , SI units = C m)
                  (au)            (Debye)         (10**-30 SI)
   Tot        0.782486D+00      0.198888D+01      0.663419D+01
   x          0.391243D+00      0.994440D+00      0.331710D+01
   y          0.000000D+00      0.000000D+00      0.000000D+00
   z          0.677653D+00      0.172242D+01      0.574538D+01

 Dipole polarizability, Alpha (input orientation).
 (esu units = cm**3 , SI units = C**2 m**2 J**-1)
 Alpha(0;0):
               (au)            (10**-24 esu)      (10**-40 SI)
   iso        0.268817D+02      0.398345D+01      0.443219D+01
   aniso      0.732143D+01      0.108492D+01      0.120714D+01
   xx         0.298008D+02      0.441602D+01      0.491348D+01
   yx         0.000000D+00      0.000000D+00      0.000000D+00
   yy         0.249104D+02      0.369134D+01      0.410717D+01
   zx        -0.334889D+01     -0.496255D+00     -0.552158D+00
   zy         0.000000D+00      0.000000D+00      0.000000D+00
   zz         0.259338D+02      0.384299D+01      0.427591D+01

 ----------------------------------------------------------------------

 Dipole orientation:
     8         -0.00000000          0.00000000         -0.34826554
     6         -1.38283995         -0.00000000          1.96867599
     6          1.38283995          0.00000000          1.96867599
     1         -2.39528748          1.73360283          2.38011856
     1         -2.39528748         -1.73360283          2.38011856
     1          2.39528748         -1.73360283          2.38011856
     1          2.39528748          1.73360283          2.38011856

 Electric dipole moment (dipole orientation):
 (Debye = 10**-18 statcoulomb cm , SI units = C m)
                  (au)            (Debye)         (10**-30 SI)
   Tot        0.782486D+00      0.198888D+01      0.663419D+01
   x          0.000000D+00      0.000000D+00      0.000000D+00
   y          0.000000D+00      0.000000D+00      0.000000D+00
   z          0.782486D+00      0.198888D+01      0.663419D+01

 Dipole polarizability, Alpha (dipole orientation).
 (esu units = cm**3 , SI units = C**2 m**2 J**-1)
 Alpha(0;0):
               (au)            (10**-24 esu)      (10**-40 SI)
   iso        0.268817D+02      0.398345D+01      0.443219D+01
   aniso      0.732143D+01      0.108492D+01      0.120714D+01
   xx         0.317343D+02      0.470253D+01      0.523227D+01
   yx         0.000000D+00      0.000000D+00      0.000000D+00
   yy         0.249104D+02      0.369134D+01      0.410717D+01
   zx         0.000000D+00      0.000000D+00      0.000000D+00
   zy         0.000000D+00      0.000000D+00      0.000000D+00
   zz         0.240003D+02      0.355648D+01      0.395712D+01

 ----------------------------------------------------------------------
 1\1\GINC-GAMBA\Freq\RB3LYP\Gen\C2H4O1\IRIKURA\03-Feb-2022\0\\#N Geom=A
 llCheck Guess=TCheck SCRF=Check GenChk RB3LYP/ChkBas Freq\\Ethylene ox
 ide, B3LYP/pcseg-2\\0,1\O,-0.0921470943,0.,-0.1596034491\C,-0.11283991
 54,0.,1.2680903133\C,1.1546183833,0.,0.5363229234\H,-0.4679622681,0.91
 73831127,1.7245286667\H,-0.4679622681,-0.9173831127,1.7245286667\H,1.7
 27466769,-0.9173831127,0.4569971212\H,1.727466769,0.9173831127,0.45699
 71212\\Version=ES64L-G16RevB.01\State=1-A1\HF=-153.8553214\RMSD=8.524e
 -10\RMSF=7.597e-05\ZeroPoint=0.0572689\Thermal=0.0604251\Dipole=0.3912
 43,0.,0.6776527\DipoleDeriv=-0.4842576,0.,-0.2476293,0.,-0.359957,0.,-
 0.2476293,0.,-0.7701953,0.1643128,0.,0.0536785,0.,0.3313118,0.,-0.0471
 704,0.,0.3989151,0.3374464,0.,0.0527883,0.,0.3313118,0.,0.1536372,0.,0
 .2257814,0.0435367,0.034229,0.0714769,0.0507458,-0.0756667,-0.0789092,
 0.0544284,-0.0319199,-0.0115374,0.0435367,-0.034229,0.0714769,-0.05074
 58,-0.0756667,0.0789092,0.0544284,0.0319199,-0.0115374,-0.0522875,0.04
 47579,-0.0008957,0.0937103,-0.0756667,-0.0044926,0.0161528,-0.0136832,
 0.0842868,-0.0522875,-0.0447579,-0.0008957,-0.0937103,-0.0756667,0.004
 4926,0.0161529,0.0136832,0.0842868\Polar=29.800771,0.,24.9104185,-3.34
 88925,0.,25.9338031\Quadrupole=0.5048169,0.6300196,-1.1348365,0.,-1.41
 99815,0.\PG=C02V [C2(O1),SGV(C2),X(H4)]\NImag=0\\0.23136515,0.,0.09041
 724,0.09664475,0.,0.34296090,-0.02171939,0.,0.01918401,0.41090852,0.,-
 0.06278617,0.,0.,0.64441556,-0.02463139,0.,-0.22556529,-0.21097051,0.,
 0.46017482,-0.17224503,0.,-0.11153741,-0.21752166,0.,0.16046224,0.6305
 6406,0.,-0.06278617,0.,0.,-0.06151796,0.,0.,0.64441556,-0.06772200,0.,
 -0.07503965,0.10419884,0.,-0.06471952,-0.08415232,0.,0.24051928,0.0040
 4632,-0.01170441,-0.00308190,-0.07530709,0.07650302,0.04077303,-0.0072
 2760,0.02814133,0.01036531,0.07384913,-0.00085787,0.00878877,-0.003616
 94,0.07734688,-0.26293842,-0.08893286,-0.00308018,0.00288270,0.0021154
 1,-0.08208546,0.26728263,0.01640517,-0.02574768,-0.02398549,0.03533322
 ,-0.08550469,-0.08185245,-0.00129850,0.00229311,-0.00639160,-0.0464466
 5,0.09995469,0.10257275,0.00404632,0.01170441,-0.00308190,-0.07530709,
 -0.07650302,0.04077303,-0.00722760,-0.02814133,0.01036531,0.00464236,0
 .00927484,-0.00397856,0.07384913,0.00085787,0.00878877,0.00361694,-0.0
 7734688,-0.26293842,0.08893286,0.00308018,0.00288270,-0.00211541,-0.00
 927484,-0.01683999,0.00962850,0.08208546,0.26728263,0.01640517,0.02574
 768,-0.02398549,0.03533322,0.08550469,-0.08185245,-0.00129851,-0.00229
 311,-0.00639160,-0.00397856,-0.00962850,0.00830078,-0.04644665,-0.0999
 5469,0.10257275,-0.02274669,0.01644594,0.00093622,-0.01052664,0.012084
 77,-0.00320321,-0.11317108,0.11230075,0.01347243,-0.00080947,-0.000423
 84,-0.00069928,0.00080634,0.00017436,0.00068460,0.13561582,0.00270342,
 0.00878877,0.00255141,-0.00337209,0.00288270,0.00160981,0.11569155,-0.
 26293842,-0.02251793,-0.00098622,0.00028315,-0.00007999,0.00059341,0.0
 0054115,0.00054394,-0.12760603,0.26728263,-0.01855085,0.02301016,0.002
 80751,0.00846061,-0.02551766,-0.00309256,0.01891225,-0.02350121,-0.043
 98846,0.00409650,0.00089408,0.00115192,-0.00172773,0.00078588,0.000204
 10,-0.01078563,0.02111075,0.04080606,-0.02274669,-0.01644594,0.0009362
 2,-0.01052664,-0.01208477,-0.00320321,-0.11317108,-0.11230075,0.013472
 43,0.00080634,-0.00017436,0.00068460,-0.00080947,0.00042384,-0.0006992
 8,0.01083171,0.01297595,-0.00040514,0.13561582,-0.00270343,0.00878877,
 -0.00255141,0.00337209,0.00288270,-0.00160981,-0.11569155,-0.26293842,
 0.02251793,-0.00059341,0.00054115,-0.00054394,0.00098622,0.00028315,0.
 00007999,-0.01297595,-0.01683999,0.00321800,0.12760603,0.26728263,-0.0
 1855085,-0.02301016,0.00280751,0.00846061,0.02551766,-0.00309256,0.018
 91225,0.02350121,-0.04398846,-0.00172773,-0.00078588,0.00020410,0.0040
 9650,-0.00089408,0.00115192,-0.00040514,-0.00321800,0.00211143,-0.0107
 8563,-0.02111075,0.04080606\\0.00008721,0.,0.00015106,-0.00021173,0.,0
 .00002023,0.00012338,0.,-0.00017325,0.00000387,0.00000776,-0.00000158,
 0.00000387,-0.00000776,-0.00000158,-0.00000330,-0.00000776,0.00000256,
 -0.00000330,0.00000776,0.00000256\\\@


 THERE ARE TWO THINGS THAT EVERYBODY THINKS THEY CAN DO BETTER THAN
 ANYONE ELSE - PUNCH THE FIRE, AND EDIT A DAILY PAPER.
 -- UNCLE ESEK, "CENTURY MAGAZINE", 1885
 Job cpu time:       0 days  0 hours  2 minutes  9.1 seconds.
 Elapsed time:       0 days  0 hours  2 minutes  8.8 seconds.
 File lengths (MBytes):  RWF=     15 Int=      0 D2E=      0 Chk=      3 Scr=      1
 Normal termination of Gaussian 16 at Thu Feb  3 12:19:26 2022.
