 Entering Gaussian System, Link 0=g16
 AtFile(1): pcseg2.gbs
            -H     0
            S   4   1.00
                  0.754732D+02           0.427821D-02
                  0.113575D+02           0.328672D-01
                  0.260081D+01           0.159578D+00
                  0.735503D+00           0.500000D+00
            S   1   1.00
                  0.231761D+00           1.0000000
            S   1   1.00
                  0.741675D-01           1.0000000
            P   1   1.00
                  0.160000D+01           1.0000000
            P   1   1.00
                  0.450000D+00           1.0000000
            D   1   1.00
                  0.125000D+01           1.0000000
            ****
            -C     0
            S   7   1.00
                  0.731999D+04           0.695369D-03
                  0.109818D+04           0.537138D-02
                  0.250014D+03           0.274734D-01
                  0.707586D+02           0.105078D+00
                  0.228595D+02           0.291262D+00
                  0.803936D+01           0.500000D+00
                  0.289309D+01           0.362224D+00
            S   2   1.00
                  0.521640D+01          -0.957844D-01
                  0.556124D+00           0.500000D+00
            S   1   1.00
                  0.228813D+00           1.0000000
            S   1   1.00
                  0.936338D-01           1.0000000
            P   4   1.00
                  0.339855D+02           0.818395D-02
                  0.772957D+01           0.586921D-01
                  0.224954D+01           0.222514D+00
                  0.767681D+00           0.500000D+00
            P   1   1.00
                  0.263283D+00           1.0000000
            P   1   1.00
                  0.848744D-01           1.0000000
            D   1   1.00
                  0.140000D+01           1.0000000
            D   1   1.00
                  0.450000D+00           1.0000000
            F   1   1.00
                  0.950000D+00           1.0000000
            ****
            -O     0
            S   7   1.00
                  0.135887D+05           0.665492D-03
                  0.203847D+04           0.514222D-02
                  0.464041D+03           0.263472D-01
                  0.131339D+03           0.101500D+00
                  0.425340D+02           0.285877D+00
                  0.150429D+02           0.500000D+00
                  0.546616D+01           0.368211D+00
            S   2   1.00
                  0.100915D+02          -0.100084D+00
                  0.110429D+01           0.500000D+00
            S   1   1.00
                  0.448082D+00           1.0000000
            S   1   1.00
                  0.175325D+00           1.0000000
            P   4   1.00
                  0.608220D+02           0.908253D-02
                  0.140332D+02           0.645878D-01
                  0.418244D+01           0.241502D+00
                  0.142490D+01           0.500000D+00
            P   1   1.00
                  0.478741D+00           1.0000000
            P   1   1.00
                  0.146257D+00           1.0000000
            D   1   1.00
                  0.220000D+01           1.0000000
            D   1   1.00
                  0.650000D+00           1.0000000
            F   1   1.00
                  0.110000D+01           1.0000000
            ****
            -N     0
            S   7   1.00
                  0.101643D+05           0.682757D-03
                  0.152481D+04           0.527488D-02
                  0.347119D+03           0.270037D-01
                  0.982389D+02           0.103673D+00
                  0.317799D+02           0.289575D+00
                  0.112240D+02           0.500000D+00
                  0.406611D+01           0.364621D+00
            S   2   1.00
                  0.747898D+01          -0.975681D-01
                  0.805040D+00           0.500000D+00
            S   1   1.00
                  0.324626D+00           1.0000000
            S   1   1.00
                  0.128132D+00           1.0000000
            P   4   1.00
                  0.482704D+02           0.829547D-02
                  0.110815D+02           0.596223D-01
                  0.326643D+01           0.227889D+00
                  0.111680D+01           0.500000D+00
            P   1   1.00
                  0.382049D+00           1.0000000
            P   1   1.00
                  0.121222D+00           1.0000000
            D   1   1.00
                  0.180000D+01           1.0000000
            D   1   1.00
                  0.550000D+00           1.0000000
            F   1   1.00
                  0.102000D+01           1.0000000
            ****
            -F     0
            S   7   1.00
                  0.174507D+05           0.655972D-03
                  0.261768D+04           0.506944D-02
                  0.595857D+03           0.259899D-01
                  0.168651D+03           0.100353D+00
                  0.546654D+02           0.284095D+00
                  0.193717D+02           0.500000D+00
                  0.706202D+01           0.370721D+00
            S   2   1.00
                  0.131197D+02          -0.101997D+00
                  0.145046D+01           0.500000D+00
            S   1   1.00
                  0.588255D+00           1.0000000
            S   1   1.00
                  0.227960D+00           1.0000000
            P   4   1.00
                  0.779407D+02           0.931135D-02
                  0.180425D+02           0.663964D-01
                  0.542342D+01           0.246386D+00
                  0.184876D+01           0.500000D+00
            P   1   1.00
                  0.617455D+00           1.0000000
            P   1   1.00
                  0.185496D+00           1.0000000
            D   1   1.00
                  0.280000D+01           1.0000000
            D   1   1.00
                  0.800000D+00           1.0000000
            F   1   1.00
                  0.120000D+01           1.0000000
            ****
            -Cl     0
            S   8   1.00
                  0.154272D+06           0.222473D-03
                  0.231232D+05           0.172590D-02
                  0.526257D+04           0.899286D-02
                  0.148995D+04           0.367724D-01
                  0.485417D+03           0.121446D+00
                  0.174634D+03           0.304148D+00
                  0.672393D+02           0.500000D+00
                  0.265780D+02           0.360252D+00
            S   3   1.00
                  0.131826D+03          -0.531330D-01
                  0.400703D+02          -0.233346D+00
                  0.789448D+01           0.500000D+00
            S   2   1.00
                  0.427711D+01           0.500000D+00
                  0.196233D+01           0.370517D+00
            S   1   1.00
                  0.520793D+00           1.0000000
            S   1   1.00
                  0.181633D+00           1.0000000
            P   7   1.00
                  0.124440D+04           0.988206D-03
                  0.295109D+03           0.829674D-02
                  0.947224D+02           0.430906D-01
                  0.352588D+02           0.148443D+00
                  0.144211D+02           0.344744D+00
                  0.610371D+01           0.500000D+00
                  0.258886D+01           0.348278D+00
            P   2   1.00
                  0.109447D+02          -0.196768D-01
                  0.104413D+01           0.500000D+00
            P   1   1.00
                  0.376184D+00           1.0000000
            P   1   1.00
                  0.120613D+00           1.0000000
            D   1   1.00
                  0.231000D+01           1.0000000
            D   1   1.00
                  0.520000D+00           1.0000000
            F   1   1.00
                  0.720000D+00           1.0000000
            ****
            -S     0
            S   8   1.00
                  0.134700D+06           0.226231D-03
                  0.201904D+05           0.175488D-02
                  0.459528D+04           0.914190D-02
                  0.130109D+04           0.373551D-01
                  0.423902D+03           0.123121D+00
                  0.152485D+03           0.306801D+00
                  0.586925D+02           0.500000D+00
                  0.231461D+02           0.354358D+00
            S   3   1.00
                  0.116327D+03          -0.491772D-01
                  0.352841D+02          -0.215962D+00
                  0.677831D+01           0.500000D+00
            S   2   1.00
                  0.360404D+01           0.500000D+00
                  0.164871D+01           0.366278D+00
            S   1   1.00
                  0.421821D+00           1.0000000
            S   1   1.00
                  0.147554D+00           1.0000000
            P   7   1.00
                  0.104863D+04           0.105273D-02
                  0.248717D+03           0.879338D-02
                  0.797887D+02           0.453358D-01
                  0.296023D+02           0.154476D+00
                  0.120627D+02           0.352366D+00
                  0.507628D+01           0.500000D+00
                  0.213375D+01           0.346429D+00
            P   2   1.00
                  0.928958D+01          -0.185932D-01
                  0.837819D+00           0.500000D+00
            P   1   1.00
                  0.301495D+00           1.0000000
            P   1   1.00
                  0.974740D-01           1.0000000
            D   1   1.00
                  0.210000D+01           1.0000000
            D   1   1.00
                  0.480000D+00           1.0000000
            F   1   1.00
                  0.660000D+00           1.0000000
            ****
            -Br     0
            S    10   1.00
                  0.233625D+07           0.532336D-04
                  0.349961D+06           0.413715D-03
                  0.796444D+05           0.217123D-02
                  0.225555D+05           0.910109D-02
                  0.735546D+04           0.323789D-01
                  0.265352D+04           0.988755D-01
                  0.103517D+04           0.248138D+00
                  0.422205D+03           0.474328D+00
                  0.180035D+03           0.500000D+00
                  0.793308D+02           0.187769D+00
            S    4   1.00
                  0.620834D+03          -0.226511D-01
                  0.190829D+03          -0.109497D+00
                  0.312505D+02           0.500000D+00
                  0.135270D+02           0.492812D+00
            S    2   1.00
                  0.216097D+02          -0.165418D+00
                  0.372566D+01           0.500000D+00
            S    1   1.00
                  0.169770D+01           1.0000000
            S    1   1.00
                  0.489332D+00           1.0000000
            S    1   1.00
                  0.175712D+00           1.0000000
            P    8   1.00
                  0.960829D+04           0.478974D-03
                  0.227618D+04           0.417853D-02
                  0.736723D+03           0.229315D-01
                  0.281579D+03           0.892653D-01
                  0.118395D+03           0.255288D+00
                  0.527481D+02           0.479074D+00
                  0.245098D+02           0.500000D+00
                  0.112009D+02           0.200944D+00
            P    4   1.00
                  0.587849D+02          -0.189674D-01
                  0.918962D+01           0.264104D+00
                  0.413895D+01           0.500000D+00
                  0.184225D+01           0.319316D+00
            P    1   1.00
                  0.713862D+00           1.0000000
            P    1   1.00
                  0.274232D+00           1.0000000
            P    1   1.00
                  0.944411D-01           1.0000000
            D    7   1.00
                  0.398470D+03           0.204066D-02
                  0.118967D+03           0.175171D-01
                  0.450197D+02           0.829708D-01
                  0.190320D+02           0.236284D+00
                  0.855686D+01           0.428468D+00
                  0.382950D+01           0.500000D+00
                  0.166291D+01           0.349360D+00
            D    1   1.00
                  0.672953D+00           1.0000000
            D    1   1.00
                  0.252000D+00           1.0000000
            F    1   1.00
                  0.530000D+00           1.0000000
            ****
            -Si     0
            S    8   1.00
                  0.996133D+05           0.235546D-03
                  0.149311D+05           0.182707D-02
                  0.339820D+04           0.951425D-02
                  0.962140D+03           0.388172D-01
                  0.313430D+03           0.127328D+00
                  0.112683D+03           0.313522D+00
                  0.433372D+02           0.500000D+00
                  0.170029D+02           0.340347D+00
            S    3   1.00
                  0.884208D+02          -0.404451D-01
                  0.266756D+02          -0.178059D+00
                  0.479640D+01           0.500000D+00
            S    2   1.00
                  0.239385D+01           0.500000D+00
                  0.108333D+01           0.338016D+00
            S    1   1.00
                  0.252420D+00           1.0000000
            S    1   1.00
                  0.891210D-01           1.0000000
            P    7   1.00
                  0.709901D+03           0.123028D-02
                  0.168426D+03           0.101366D-01
                  0.539946D+02           0.511840D-01
                  0.198646D+02           0.169967D+00
                  0.801369D+01           0.370717D+00
                  0.331870D+01           0.500000D+00
                  0.136112D+01           0.344128D+00
            P    2   1.00
                  0.622158D+01          -0.166609D-01
                  0.503049D+00           0.500000D+00
            P    1   1.00
                  0.179848D+00           1.0000000
            P    1   1.00
                  0.591912D-01           1.0000000
            D    1   1.00
                  0.168000D+01           1.0000000
            D    1   1.00
                  0.380000D+00           1.0000000
            F    1   1.00
                  0.540000D+00           1.0000000
            ****
            -P     0
            S    8   1.00
                  0.116416D+06           0.230715D-03
                  0.174500D+05           0.178960D-02
                  0.397149D+04           0.932116D-02
                  0.112447D+04           0.380591D-01
                  0.366347D+03           0.125148D+00
                  0.131757D+03           0.310022D+00
                  0.506988D+02           0.500000D+00
                  0.199436D+02           0.347528D+00
            S    3   1.00
                  0.101878D+03          -0.446755D-01
                  0.308249D+02          -0.196376D+00
                  0.573688D+01           0.500000D+00
            S    2   1.00
                  0.296868D+01           0.500000D+00
                  0.135315D+01           0.355098D+00
            S    1   1.00
                  0.332196D+00           1.0000000
            S    1   1.00
                  0.116229D+00           1.0000000
            P    7   1.00
                  0.873928D+03           0.112375D-02
                  0.207298D+03           0.933330D-02
                  0.664628D+02           0.477213D-01
                  0.245665D+02           0.160733D+00
                  0.996820D+01           0.359760D+00
                  0.416536D+01           0.500000D+00
                  0.173022D+01           0.346593D+00
            P    2   1.00
                  0.772530D+01          -0.175718D-01
                  0.657252D+00           0.500000D+00
            P    1   1.00
                  0.239903D+00           1.0000000
            P    1   1.00
                  0.800988D-01           1.0000000
            D    1   1.00
                  0.189000D+01           1.0000000
            D    1   1.00
                  0.430000D+00           1.0000000
            F    1   1.00
                  0.600000D+00           1.0000000
            ****
            
 Initial command:
 /usr/local/apps/g16_b01_avx/g16/l1.exe "/wrk/irikura/Gau-190613.inp" -scrdir="/wrk/irikura/"
 Entering Link 1 = /usr/local/apps/g16_b01_avx/g16/l1.exe PID=    190615.
  
 Copyright (c) 1988-2017, Gaussian, Inc.  All Rights Reserved.
  
 This is part of the Gaussian(R) 16 program.  It is based on
 the Gaussian(R) 09 system (copyright 2009, Gaussian, Inc.),
 the Gaussian(R) 03 system (copyright 2003, Gaussian, Inc.),
 the Gaussian(R) 98 system (copyright 1998, Gaussian, Inc.),
 the Gaussian(R) 94 system (copyright 1995, Gaussian, Inc.),
 the Gaussian 92(TM) system (copyright 1992, Gaussian, Inc.),
 the Gaussian 90(TM) system (copyright 1990, Gaussian, Inc.),
 the Gaussian 88(TM) system (copyright 1988, Gaussian, Inc.),
 the Gaussian 86(TM) system (copyright 1986, Carnegie Mellon
 University), and the Gaussian 82(TM) system (copyright 1983,
 Carnegie Mellon University). Gaussian is a federally registered
 trademark of Gaussian, Inc.
  
 This software contains proprietary and confidential information,
 including trade secrets, belonging to Gaussian, Inc.
  
 This software is provided under written license and may be
 used, copied, transmitted, or stored only in accord with that
 written license.
  
 The following legend is applicable only to US Government
 contracts under FAR:
  
                    RESTRICTED RIGHTS LEGEND
  
 Use, reproduction and disclosure by the US Government is
 subject to restrictions as set forth in subparagraphs (a)
 and (c) of the Commercial Computer Software - Restricted
 Rights clause in FAR 52.227-19.
  
 Gaussian, Inc.
 340 Quinnipiac St., Bldg. 40, Wallingford CT 06492
  
  
 ---------------------------------------------------------------
 Warning -- This program may not be used in any manner that
 competes with the business of Gaussian, Inc. or will provide
 assistance to any competitor of Gaussian, Inc.  The licensee
 of this program is prohibited from giving any competitor of
 Gaussian, Inc. access to this program.  By using this program,
 the user acknowledges that Gaussian, Inc. is engaged in the
 business of creating and licensing software in the field of
 computational chemistry and represents and warrants to the
 licensee that it is not a competitor of Gaussian, Inc. and that
 it will not use this program in any manner prohibited above.
 ---------------------------------------------------------------
  

 Cite this work as:
 Gaussian 16, Revision B.01,
 M. J. Frisch, G. W. Trucks, H. B. Schlegel, G. E. Scuseria, 
 M. A. Robb, J. R. Cheeseman, G. Scalmani, V. Barone, 
 G. A. Petersson, H. Nakatsuji, X. Li, M. Caricato, A. V. Marenich, 
 J. Bloino, B. G. Janesko, R. Gomperts, B. Mennucci, H. P. Hratchian, 
 J. V. Ortiz, A. F. Izmaylov, J. L. Sonnenberg, D. Williams-Young, 
 F. Ding, F. Lipparini, F. Egidi, J. Goings, B. Peng, A. Petrone, 
 T. Henderson, D. Ranasinghe, V. G. Zakrzewski, J. Gao, N. Rega, 
 G. Zheng, W. Liang, M. Hada, M. Ehara, K. Toyota, R. Fukuda, 
 J. Hasegawa, M. Ishida, T. Nakajima, Y. Honda, O. Kitao, H. Nakai, 
 T. Vreven, K. Throssell, J. A. Montgomery, Jr., J. E. Peralta, 
 F. Ogliaro, M. J. Bearpark, J. J. Heyd, E. N. Brothers, K. N. Kudin, 
 V. N. Staroverov, T. A. Keith, R. Kobayashi, J. Normand, 
 K. Raghavachari, A. P. Rendell, J. C. Burant, S. S. Iyengar, 
 J. Tomasi, M. Cossi, J. M. Millam, M. Klene, C. Adamo, R. Cammi, 
 J. W. Ochterski, R. L. Martin, K. Morokuma, O. Farkas, 
 J. B. Foresman, and D. J. Fox, Gaussian, Inc., Wallingford CT, 2016.
 
 ******************************************
 Gaussian 16:  ES64L-G16RevB.01 20-Dec-2017
                29-Sep-2023 
 ******************************************
 %chk=phcch.chk
 %mem=500mw
 %nprocs=4
 Will use up to    4 processors via shared memory.
 ---------------------------------------
 # b3lyp/gen opt freq CPHF(Grid=OneStep)
 ---------------------------------------
 1/18=20,19=15,26=3,38=1/1,3;
 2/9=110,12=2,17=6,18=5,40=1/2;
 3/5=7,11=2,25=1,30=1,71=1,74=-5/1,2,3;
 4//1;
 5/5=2,38=5/2;
 6/7=2,8=2,9=2,10=2,28=1/1;
 7//1,2,3,16;
 1/18=20,19=15,26=3/3(2);
 2/9=110/2;
 99//99;
 2/9=110/2;
 3/5=7,6=1,11=2,25=1,30=1,71=1,74=-5,82=7/1,2,3;
 4/5=5,16=3,69=1/1;
 5/5=2,38=5/2;
 7//1,2,3,16;
 1/18=20,19=15,26=3/3(-5);
 2/9=110/2;
 6/7=2,8=2,9=2,10=2,19=2,28=1/1;
 99/9=1/99;
 ------------------------------
 phenylacetylene, B3LYP/pcseg-2
 ------------------------------
 Symbolic Z-matrix:
 Charge =  0 Multiplicity = 1
 C                     0.        0.        0.59189 
 C                     0.        0.        2.01787 
 C                     0.        1.20749  -0.11954 
 C                     0.       -1.20749  -0.11954 
 C                     0.        1.20313  -1.5063 
 C                     0.       -1.20313  -1.5063 
 C                     0.        0.       -2.20396 
 C                     0.        0.        3.21965 
 H                     0.        0.        4.28071 
 H                     0.        2.14089   0.42518 
 H                     0.       -2.14089   0.42518 
 H                     0.        2.14141  -2.04414 
 H                     0.       -2.14141  -2.04414 
 H                     0.        0.       -3.2854 
 

 GradGradGradGradGradGradGradGradGradGradGradGradGradGradGradGradGradGrad
 Berny optimization.
 Initialization pass.
                           ----------------------------
                           !    Initial Parameters    !
                           ! (Angstroms and Degrees)  !
 --------------------------                            --------------------------
 ! Name  Definition              Value          Derivative Info.                !
 --------------------------------------------------------------------------------
 ! R1    R(1,2)                  1.426          estimate D2E/DX2                !
 ! R2    R(1,3)                  1.4015         estimate D2E/DX2                !
 ! R3    R(1,4)                  1.4015         estimate D2E/DX2                !
 ! R4    R(2,8)                  1.2018         estimate D2E/DX2                !
 ! R5    R(3,5)                  1.3868         estimate D2E/DX2                !
 ! R6    R(3,10)                 1.0807         estimate D2E/DX2                !
 ! R7    R(4,6)                  1.3868         estimate D2E/DX2                !
 ! R8    R(4,11)                 1.0807         estimate D2E/DX2                !
 ! R9    R(5,7)                  1.3908         estimate D2E/DX2                !
 ! R10   R(5,12)                 1.0815         estimate D2E/DX2                !
 ! R11   R(6,7)                  1.3908         estimate D2E/DX2                !
 ! R12   R(6,13)                 1.0815         estimate D2E/DX2                !
 ! R13   R(7,14)                 1.0814         estimate D2E/DX2                !
 ! R14   R(8,9)                  1.0611         estimate D2E/DX2                !
 ! A1    A(2,1,3)              120.5055         estimate D2E/DX2                !
 ! A2    A(2,1,4)              120.5055         estimate D2E/DX2                !
 ! A3    A(3,1,4)              118.989          estimate D2E/DX2                !
 ! A4    A(1,3,5)              120.3255         estimate D2E/DX2                !
 ! A5    A(1,3,10)             119.2275         estimate D2E/DX2                !
 ! A6    A(5,3,10)             120.4471         estimate D2E/DX2                !
 ! A7    A(1,4,6)              120.3255         estimate D2E/DX2                !
 ! A8    A(1,4,11)             119.2275         estimate D2E/DX2                !
 ! A9    A(6,4,11)             120.4471         estimate D2E/DX2                !
 ! A10   A(3,5,7)              120.2881         estimate D2E/DX2                !
 ! A11   A(3,5,12)             119.6418         estimate D2E/DX2                !
 ! A12   A(7,5,12)             120.0702         estimate D2E/DX2                !
 ! A13   A(4,6,7)              120.2881         estimate D2E/DX2                !
 ! A14   A(4,6,13)             119.6418         estimate D2E/DX2                !
 ! A15   A(7,6,13)             120.0702         estimate D2E/DX2                !
 ! A16   A(5,7,6)              119.784          estimate D2E/DX2                !
 ! A17   A(5,7,14)             120.108          estimate D2E/DX2                !
 ! A18   A(6,7,14)             120.108          estimate D2E/DX2                !
 ! A19   L(1,2,8,10,-1)        180.0            estimate D2E/DX2                !
 ! A20   L(2,8,9,10,-1)        180.0            estimate D2E/DX2                !
 ! A21   L(1,2,8,10,-2)        180.0            estimate D2E/DX2                !
 ! A22   L(2,8,9,10,-2)        180.0            estimate D2E/DX2                !
 ! D1    D(2,1,3,5)            180.0            estimate D2E/DX2                !
 ! D2    D(2,1,3,10)             0.0            estimate D2E/DX2                !
 ! D3    D(4,1,3,5)              0.0            estimate D2E/DX2                !
 ! D4    D(4,1,3,10)           180.0            estimate D2E/DX2                !
 ! D5    D(2,1,4,6)            180.0            estimate D2E/DX2                !
 ! D6    D(2,1,4,11)             0.0            estimate D2E/DX2                !
 ! D7    D(3,1,4,6)              0.0            estimate D2E/DX2                !
 ! D8    D(3,1,4,11)           180.0            estimate D2E/DX2                !
 ! D9    D(1,3,5,7)              0.0            estimate D2E/DX2                !
 ! D10   D(1,3,5,12)           180.0            estimate D2E/DX2                !
 ! D11   D(10,3,5,7)           180.0            estimate D2E/DX2                !
 ! D12   D(10,3,5,12)            0.0            estimate D2E/DX2                !
 ! D13   D(1,4,6,7)              0.0            estimate D2E/DX2                !
 ! D14   D(1,4,6,13)           180.0            estimate D2E/DX2                !
 ! D15   D(11,4,6,7)           180.0            estimate D2E/DX2                !
 ! D16   D(11,4,6,13)            0.0            estimate D2E/DX2                !
 ! D17   D(3,5,7,6)              0.0            estimate D2E/DX2                !
 ! D18   D(3,5,7,14)           180.0            estimate D2E/DX2                !
 ! D19   D(12,5,7,6)           180.0            estimate D2E/DX2                !
 ! D20   D(12,5,7,14)            0.0            estimate D2E/DX2                !
 ! D21   D(4,6,7,5)              0.0            estimate D2E/DX2                !
 ! D22   D(4,6,7,14)           180.0            estimate D2E/DX2                !
 ! D23   D(13,6,7,5)           180.0            estimate D2E/DX2                !
 ! D24   D(13,6,7,14)            0.0            estimate D2E/DX2                !
 --------------------------------------------------------------------------------
 Trust Radius=3.00D-01 FncErr=1.00D-07 GrdErr=1.00D-06 EigMax=2.50D+02 EigMin=1.00D-04
 Number of steps in this run=     70 maximum allowed number of steps=    100.
 GradGradGradGradGradGradGradGradGradGradGradGradGradGradGradGradGradGrad

                          Input orientation:                          
 ---------------------------------------------------------------------
 Center     Atomic      Atomic             Coordinates (Angstroms)
 Number     Number       Type             X           Y           Z
 ---------------------------------------------------------------------
      1          6           0        0.000000    0.000000    0.591886
      2          6           0        0.000000    0.000000    2.017866
      3          6           0        0.000000    1.207487   -0.119535
      4          6           0        0.000000   -1.207487   -0.119535
      5          6           0        0.000000    1.203129   -1.506303
      6          6           0        0.000000   -1.203129   -1.506303
      7          6           0        0.000000    0.000000   -2.203957
      8          6           0        0.000000    0.000000    3.219650
      9          1           0        0.000000    0.000000    4.280705
     10          1           0        0.000000    2.140887    0.425179
     11          1           0        0.000000   -2.140887    0.425179
     12          1           0        0.000000    2.141409   -2.044136
     13          1           0        0.000000   -2.141409   -2.044136
     14          1           0        0.000000    0.000000   -3.285398
 ---------------------------------------------------------------------
                    Distance matrix (angstroms):
                    1          2          3          4          5
     1  C    0.000000
     2  C    1.425980   0.000000
     3  C    1.401479   2.454895   0.000000
     4  C    1.401479   2.454895   2.414974   0.000000
     5  C    2.418660   3.723881   1.386775   2.781042   0.000000
     6  C    2.418660   3.723881   2.781042   1.386775   2.406258
     7  C    2.795843   4.221823   2.408908   2.408908   1.390770
     8  C    2.627764   1.201784   3.550800   3.550800   4.876695
     9  H    3.688819   2.262839   4.562909   4.562909   5.910751
    10  H    2.147368   2.668342   1.080717   3.392392   2.147094
    11  H    2.147368   2.668342   3.392392   1.080717   3.861744
    12  H    3.396210   4.591894   2.139229   3.862537   1.081496
    13  H    3.396210   4.591894   3.862537   2.139229   3.387506
    14  H    3.877284   5.303264   3.388320   3.388320   2.147719
                    6          7          8          9         10
     6  C    0.000000
     7  C    1.390770   0.000000
     8  C    4.876695   5.423607   0.000000
     9  H    5.910751   6.484662   1.061055   0.000000
    10  H    3.861744   3.390539   3.520293   4.410043   0.000000
    11  H    2.147094   3.390539   3.520293   4.410043   4.281774
    12  H    3.387506   2.147365   5.682700   6.677518   2.469315
    13  H    1.081496   2.147365   5.682700   6.677518   4.943235
    14  H    2.147719   1.081441   6.505048   7.566103   4.283898
                   11         12         13         14
    11  H    0.000000
    12  H    4.943235   0.000000
    13  H    2.469315   4.282818   0.000000
    14  H    4.283898   2.475149   2.475149   0.000000
 Stoichiometry    C8H6
 Framework group  C2V[C2(HCCCCH),SGV(C4H4)]
 Deg. of freedom    13
 Full point group                 C2V     NOp   4
 Largest Abelian subgroup         C2V     NOp   4
 Largest concise Abelian subgroup C2      NOp   2
                         Standard orientation:                         
 ---------------------------------------------------------------------
 Center     Atomic      Atomic             Coordinates (Angstroms)
 Number     Number       Type             X           Y           Z
 ---------------------------------------------------------------------
      1          6           0        0.000000    0.000000    0.591886
      2          6           0        0.000000    0.000000    2.017866
      3          6           0        0.000000    1.207487   -0.119535
      4          6           0       -0.000000   -1.207487   -0.119535
      5          6           0        0.000000    1.203129   -1.506303
      6          6           0       -0.000000   -1.203129   -1.506303
      7          6           0        0.000000   -0.000000   -2.203957
      8          6           0        0.000000    0.000000    3.219650
      9          1           0        0.000000    0.000000    4.280705
     10          1           0        0.000000    2.140887    0.425179
     11          1           0       -0.000000   -2.140887    0.425179
     12          1           0        0.000000    2.141409   -2.044136
     13          1           0       -0.000000   -2.141409   -2.044136
     14          1           0        0.000000   -0.000000   -3.285398
 ---------------------------------------------------------------------
 Rotational constants (GHZ):           5.7289713           1.5378346           1.2123910
 General basis read from cards:  (5D, 7F)
 There are   150 symmetry adapted cartesian basis functions of A1  symmetry.
 There are    44 symmetry adapted cartesian basis functions of A2  symmetry.
 There are    68 symmetry adapted cartesian basis functions of B1  symmetry.
 There are   108 symmetry adapted cartesian basis functions of B2  symmetry.
 There are   126 symmetry adapted basis functions of A1  symmetry.
 There are    42 symmetry adapted basis functions of A2  symmetry.
 There are    62 symmetry adapted basis functions of B1  symmetry.
 There are    94 symmetry adapted basis functions of B2  symmetry.
   324 basis functions,   516 primitive gaussians,   370 cartesian basis functions
    27 alpha electrons       27 beta electrons
       nuclear repulsion energy       299.6918825579 Hartrees.
 NAtoms=   14 NActive=   14 NUniq=   10 SFac= 1.96D+00 NAtFMM=   60 NAOKFM=F Big=F
 Integral buffers will be    131072 words long.
 Raffenetti 2 integral format.
 Two-electron integral symmetry is turned on.
 One-electron integrals computed using PRISM.
 NBasis=   324 RedAO= T EigKep=  1.86D-05  NBF=   126    42    62    94
 NBsUse=   324 1.00D-06 EigRej= -1.00D+00 NBFU=   126    42    62    94
 ExpMin= 7.42D-02 ExpMax= 7.32D+03 ExpMxC= 2.50D+02 IAcc=3 IRadAn=         5 AccDes= 0.00D+00
 Harris functional with IExCor=  402 and IRadAn=       5 diagonalized for initial guess.
 HarFok:  IExCor=  402 AccDes= 0.00D+00 IRadAn=         5 IDoV= 1 UseB2=F ITyADJ=14
 ICtDFT=  3500011 ScaDFX=  1.000000  1.000000  1.000000  1.000000
 FoFCou: FMM=F IPFlag=           0 FMFlag=      100000 FMFlg1=           0
         NFxFlg=           0 DoJE=T BraDBF=F KetDBF=T FulRan=T
         wScrn=  0.000000 ICntrl=       500 IOpCl=  0 I1Cent=   200000004 NGrid=           0
         NMat0=    1 NMatS0=      1 NMatT0=    0 NMatD0=    1 NMtDS0=    0 NMtDT0=    0
 Petite list used in FoFCou.
 Initial guess orbital symmetries:
       Occupied  (A1) (A1) (A1) (B2) (A1) (A1) (B2) (A1) (A1) (A1)
                 (B2) (A1) (A1) (B2) (A1) (A1) (B2) (A1) (A1) (B2)
                 (A1) (B1) (B2) (B1) (B2) (A2) (B1)
       Virtual   (B1) (A2) (B2) (B1) (A1) (B2) (A1) (A1) (B1) (A1)
                 (B2) (A1) (A1) (A1) (B1) (B2) (B2) (B1) (A1) (B2)
                 (A1) (A2) (A1) (B1) (A1) (B2) (A2) (B2) (A1) (A1)
                 (B1) (B2) (A1) (B1) (A1) (B2) (B2) (B1) (A1) (A1)
                 (B2) (A1) (B2) (A1) (B2) (A1) (A1) (B2) (B2) (A1)
                 (B2) (A1) (B1) (A1) (B2) (A1) (A2) (A1) (A2) (B1)
                 (A1) (A2) (A1) (B1) (A2) (B2) (A1) (B2) (B1) (A1)
                 (B2) (A1) (A1) (B1) (A1) (B2) (A2) (B2) (B1) (A1)
                 (B1) (B2) (A1) (B2) (A2) (A1) (B1) (B1) (A1) (A2)
                 (A2) (B1) (B2) (B2) (A1) (B1) (B1) (B2) (A1) (B2)
                 (B2) (A2) (A1) (B1) (A1) (B2) (B1) (A1) (A2) (A1)
                 (B1) (B2) (A1) (A2) (B1) (B2) (A1) (A1) (B2) (A1)
                 (A1) (B2) (A1) (B2) (A1) (A2) (B2) (A1) (B1) (B2)
                 (A1) (B2) (A1) (A1) (B2) (B2) (B1) (A1) (A1) (B2)
                 (A1) (B2) (A1) (A1) (B2) (A2) (B2) (B1) (A2) (A1)
                 (A1) (B1) (A2) (B1) (A1) (B2) (B2) (B1) (A2) (B1)
                 (B2) (A1) (B1) (A1) (A1) (A2) (B2) (A1) (B2) (A1)
                 (B2) (B1) (B1) (B2) (A2) (A1) (A1) (B2) (B1) (A1)
                 (A1) (B2) (B2) (A2) (A1) (B1) (A2) (A1) (B1) (B2)
                 (A2) (B1) (A2) (A1) (A1) (B1) (B2) (A2) (A1) (A2)
                 (B2) (A1) (B1) (B2) (A2) (A1) (B2) (B1) (A1) (A1)
                 (B2) (A2) (A2) (A1) (B2) (B1) (A1) (A2) (B1) (B1)
                 (A1) (A2) (A1) (B2) (B1) (A2) (B2) (B1) (A1) (B1)
                 (A2) (B2) (B1) (A2) (B2) (A1) (B2) (A1) (A2) (B1)
                 (A1) (B1) (A2) (B1) (A1) (B2) (B1) (A2) (A1) (B2)
                 (A1) (B2) (B1) (A1) (B2) (A1) (B2) (B2) (A1) (B2)
                 (B1) (A1) (A2) (A1) (B2) (A2) (B1) (A1) (B2) (A1)
                 (B1) (A1) (B2) (A2) (B2) (A1) (B2) (A1) (B2) (A1)
                 (B1) (B2) (B1) (A1) (B2) (B2) (A1) (A1) (A1) (B2)
                 (A1) (B2) (A1) (B2) (A1) (A1) (A1)
 The electronic state of the initial guess is 1-A1.
 Requested convergence on RMS density matrix=1.00D-08 within 128 cycles.
 Requested convergence on MAX density matrix=1.00D-06.
 Requested convergence on             energy=1.00D-06.
 No special actions if energy rises.
 Integral accuracy reduced to 1.0D-05 until final iterations.
 Initial convergence to 1.0D-05 achieved.  Increase integral accuracy.
 SCF Done:  E(RB3LYP) =  -308.514595721     A.U. after   14 cycles
            NFock= 14  Conv=0.56D-08     -V/T= 2.0038

 **********************************************************************

            Population analysis using the SCF Density.

 **********************************************************************

 Orbital symmetries:
       Occupied  (A1) (B2) (A1) (A1) (B2) (A1) (A1) (A1) (A1) (A1)
                 (B2) (A1) (A1) (B2) (A1) (A1) (A1) (B2) (A1) (B2)
                 (B1) (A1) (B2) (B1) (B2) (A2) (B1)
       Virtual   (B1) (A2) (A1) (B2) (A1) (B2) (A1) (B1) (B2) (A1)
                 (A1) (A1) (B1) (B2) (B1) (A1) (B1) (B2) (A2) (A1)
                 (B2) (A1) (B1) (A1) (B2) (A1) (A2) (A1) (B1) (B2)
                 (A1) (B2) (B1) (A1) (B2) (A1) (B1) (B2) (A1) (A1)
                 (B2) (A1) (B2) (A1) (B2) (A1) (A1) (B2) (A1) (B2)
                 (A1) (B2) (B2) (B1) (A1) (A1) (A1) (A2) (A2) (B1)
                 (A1) (A2) (B1) (A1) (A2) (B2) (B2) (A1) (B1) (A1)
                 (B2) (A1) (A1) (B1) (A1) (B2) (B2) (A2) (B1) (A1)
                 (B2) (B1) (A1) (A2) (B2) (A1) (A1) (B1) (A2) (B1)
                 (A2) (B2) (B1) (A1) (B2) (B1) (B2) (B1) (A1) (B2)
                 (B2) (A2) (A1) (B1) (A1) (B2) (B1) (A1) (A2) (A1)
                 (B1) (B2) (A1) (A2) (B1) (A1) (B2) (A1) (B2) (A1)
                 (A1) (B2) (A1) (A1) (B2) (A2) (B2) (B1) (A1) (B2)
                 (A1) (B2) (A1) (A1) (B2) (B1) (B2) (A1) (A1) (B2)
                 (A1) (B2) (A1) (A1) (B2) (A2) (B2) (B1) (A2) (A1)
                 (A1) (B1) (A2) (B1) (A1) (B2) (B2) (B1) (A2) (B1)
                 (B2) (B1) (A1) (A1) (A1) (A2) (B2) (A1) (B2) (B1)
                 (A1) (B2) (B1) (A2) (B2) (A1) (A1) (B2) (A1) (B1)
                 (A1) (B2) (B2) (A2) (B1) (A1) (A2) (B2) (A2) (B1)
                 (A1) (B1) (A2) (A1) (B1) (A1) (B2) (A2) (A1) (B2)
                 (A2) (B1) (A1) (B2) (A2) (B2) (A1) (A1) (B1) (A1)
                 (B2) (A2) (A1) (A2) (B2) (A1) (B1) (A2) (B1) (B1)
                 (A1) (A2) (B2) (A1) (B1) (A2) (A1) (B1) (B2) (A2)
                 (B1) (B2) (B1) (A2) (B2) (B2) (A1) (A1) (B1) (A2)
                 (A1) (B1) (A2) (A1) (B1) (B2) (B1) (A2) (A1) (B2)
                 (A1) (B2) (B1) (B2) (A1) (B2) (A1) (A1) (B2) (B2)
                 (B1) (A2) (A1) (A1) (B2) (A2) (B1) (A1) (B2) (A1)
                 (B1) (A2) (B2) (A1) (B2) (A1) (B2) (A1) (B2) (A1)
                 (B1) (B2) (B1) (A1) (B2) (B2) (A1) (A1) (A1) (B2)
                 (A1) (B2) (A1) (B2) (A1) (A1) (A1)
 The electronic state is 1-A1.
 Alpha  occ. eigenvalues --  -10.20749 -10.18745 -10.18744 -10.18569 -10.18493
 Alpha  occ. eigenvalues --  -10.18469 -10.18026 -10.17185  -0.87498  -0.79232
 Alpha  occ. eigenvalues --   -0.76072  -0.73517  -0.63448  -0.61968  -0.55880
 Alpha  occ. eigenvalues --   -0.52399  -0.48649  -0.47061  -0.44615  -0.43560
 Alpha  occ. eigenvalues --   -0.39407  -0.37076  -0.36154  -0.32157  -0.28818
 Alpha  occ. eigenvalues --   -0.27010  -0.24603
 Alpha virt. eigenvalues --   -0.04615  -0.02408   0.01393   0.03022   0.03811
 Alpha virt. eigenvalues --    0.04034   0.05157   0.06440   0.07441   0.07664
 Alpha virt. eigenvalues --    0.11647   0.12454   0.13094   0.15884   0.16057
 Alpha virt. eigenvalues --    0.17429   0.18224   0.19273   0.19525   0.20151
 Alpha virt. eigenvalues --    0.20879   0.24706   0.24743   0.25314   0.26841
 Alpha virt. eigenvalues --    0.26915   0.27074   0.28004   0.30187   0.30395
 Alpha virt. eigenvalues --    0.30992   0.32420   0.32656   0.33191   0.33944
 Alpha virt. eigenvalues --    0.35041   0.35733   0.36293   0.37207   0.41394
 Alpha virt. eigenvalues --    0.42040   0.42847   0.44874   0.45855   0.47850
 Alpha virt. eigenvalues --    0.49155   0.52244   0.52903   0.55509   0.59979
 Alpha virt. eigenvalues --    0.62288   0.63163   0.64925   0.64934   0.68013
 Alpha virt. eigenvalues --    0.68818   0.72733   0.75259   0.75795   0.77523
 Alpha virt. eigenvalues --    0.80805   0.82192   0.85325   0.87429   0.88247
 Alpha virt. eigenvalues --    0.89068   0.89514   0.91589   0.95599   0.98229
 Alpha virt. eigenvalues --    0.98814   1.00137   1.04256   1.05631   1.07008
 Alpha virt. eigenvalues --    1.07328   1.08468   1.09930   1.12744   1.14019
 Alpha virt. eigenvalues --    1.15487   1.17050   1.17787   1.21184   1.21490
 Alpha virt. eigenvalues --    1.21628   1.22357   1.23848   1.26265   1.26633
 Alpha virt. eigenvalues --    1.29160   1.30335   1.31235   1.33308   1.34398
 Alpha virt. eigenvalues --    1.34750   1.38559   1.39613   1.40105   1.41701
 Alpha virt. eigenvalues --    1.42862   1.44861   1.47439   1.50475   1.52612
 Alpha virt. eigenvalues --    1.53451   1.57577   1.59176   1.60480   1.61478
 Alpha virt. eigenvalues --    1.61932   1.62274   1.65179   1.66311   1.67252
 Alpha virt. eigenvalues --    1.68711   1.69432   1.73722   1.76355   1.78073
 Alpha virt. eigenvalues --    1.86237   1.88329   1.89568   1.92905   1.94719
 Alpha virt. eigenvalues --    1.95147   1.97735   1.98590   1.99059   2.00155
 Alpha virt. eigenvalues --    2.03301   2.07805   2.17953   2.18744   2.18911
 Alpha virt. eigenvalues --    2.23396   2.23989   2.25528   2.34014   2.35716
 Alpha virt. eigenvalues --    2.51168   2.54588   2.57953   2.68026   2.69238
 Alpha virt. eigenvalues --    2.80338   2.81725   2.93006   3.00185   3.00549
 Alpha virt. eigenvalues --    3.03492   3.15424   3.17381   3.17675   3.18770
 Alpha virt. eigenvalues --    3.19962   3.22682   3.23243   3.24223   3.29055
 Alpha virt. eigenvalues --    3.31840   3.34661   3.35740   3.36376   3.37846
 Alpha virt. eigenvalues --    3.38050   3.45575   3.50443   3.54340   3.57255
 Alpha virt. eigenvalues --    3.58223   3.58400   3.60707   3.62519   3.63163
 Alpha virt. eigenvalues --    3.66657   3.69359   3.74553   3.78496   3.80641
 Alpha virt. eigenvalues --    3.82137   3.83214   3.85933   3.86651   3.88879
 Alpha virt. eigenvalues --    3.88906   3.94607   3.96062   3.96499   3.96551
 Alpha virt. eigenvalues --    3.96768   3.97758   3.98824   4.02939   4.04652
 Alpha virt. eigenvalues --    4.05636   4.05711   4.06074   4.07700   4.11959
 Alpha virt. eigenvalues --    4.12103   4.13130   4.13939   4.18246   4.19369
 Alpha virt. eigenvalues --    4.20416   4.20842   4.21551   4.22973   4.24692
 Alpha virt. eigenvalues --    4.25752   4.29412   4.30422   4.31493   4.33178
 Alpha virt. eigenvalues --    4.33856   4.34278   4.35389   4.36776   4.40792
 Alpha virt. eigenvalues --    4.41175   4.42288   4.43868   4.44855   4.46194
 Alpha virt. eigenvalues --    4.48327   4.48893   4.49043   4.49320   4.52553
 Alpha virt. eigenvalues --    4.52859   4.58896   4.60058   4.61718   4.64571
 Alpha virt. eigenvalues --    4.66156   4.66299   4.68614   4.69080   4.70648
 Alpha virt. eigenvalues --    4.74290   4.75836   4.77368   4.78056   4.78267
 Alpha virt. eigenvalues --    4.81051   4.87873   4.88332   4.95236   4.95561
 Alpha virt. eigenvalues --    5.00654   5.03356   5.04258   5.11526   5.12078
 Alpha virt. eigenvalues --    5.13523   5.13873   5.16525   5.18102   5.23779
 Alpha virt. eigenvalues --    5.25336   5.32316   5.32474   5.35380   5.37796
 Alpha virt. eigenvalues --    5.38074   5.38291   5.41668   5.49661   5.50625
 Alpha virt. eigenvalues --    5.52278   5.56469   5.57310   5.58733   5.62823
 Alpha virt. eigenvalues --    5.70751   5.71618   5.73936   5.74675   5.78000
 Alpha virt. eigenvalues --    5.83782   5.92883   5.94132   5.97087   6.06189
 Alpha virt. eigenvalues --    6.08567   6.22218   6.25526   6.37167   6.38969
 Alpha virt. eigenvalues --    6.48601   6.71238   6.89105   7.12444   7.17156
 Alpha virt. eigenvalues --    9.10889  11.51625
          Condensed to atoms (all electrons):
               1          2          3          4          5          6
     1  C    4.684704   0.352447   0.492834   0.492834  -0.032823  -0.032823
     2  C    0.352447   5.136136  -0.090262  -0.090262   0.008579   0.008579
     3  C    0.492834  -0.090262   5.012704  -0.085882   0.442837  -0.055908
     4  C    0.492834  -0.090262  -0.085882   5.012704  -0.055908   0.442837
     5  C   -0.032823   0.008579   0.442837  -0.055908   4.881491  -0.033558
     6  C   -0.032823   0.008579  -0.055908   0.442837  -0.033558   4.881491
     7  C   -0.057943  -0.000685  -0.046712  -0.046712   0.455730   0.455730
     8  C   -0.097374   0.805351  -0.011978  -0.011978  -0.000346  -0.000346
     9  H   -0.000151  -0.080791  -0.000379  -0.000379   0.000015   0.000015
    10  H   -0.045943  -0.006103   0.463660   0.010870  -0.053606  -0.003919
    11  H   -0.045943  -0.006103   0.010870   0.463660  -0.003919  -0.053606
    12  H    0.011625  -0.000502  -0.050221  -0.004733   0.459997   0.015362
    13  H    0.011625  -0.000502  -0.004733  -0.050221   0.015362   0.459997
    14  H   -0.005833   0.000080   0.015502   0.015502  -0.056122  -0.056122
               7          8          9         10         11         12
     1  C   -0.057943  -0.097374  -0.000151  -0.045943  -0.045943   0.011625
     2  C   -0.000685   0.805351  -0.080791  -0.006103  -0.006103  -0.000502
     3  C   -0.046712  -0.011978  -0.000379   0.463660   0.010870  -0.050221
     4  C   -0.046712  -0.011978  -0.000379   0.010870   0.463660  -0.004733
     5  C    0.455730  -0.000346   0.000015  -0.053606  -0.003919   0.459997
     6  C    0.455730  -0.000346   0.000015  -0.003919  -0.053606   0.015362
     7  C    4.857530  -0.001078  -0.000031   0.012760   0.012760  -0.055357
     8  C   -0.001078   5.043042   0.488037  -0.004753  -0.004753   0.000097
     9  H   -0.000031   0.488037   0.538972  -0.000250  -0.000250   0.000002
    10  H    0.012760  -0.004753  -0.000250   0.600053  -0.000266  -0.010474
    11  H    0.012760  -0.004753  -0.000250  -0.000266   0.600053   0.000089
    12  H   -0.055357   0.000097   0.000002  -0.010474   0.000089   0.624816
    13  H   -0.055357   0.000097   0.000002   0.000089  -0.010474  -0.000038
    14  H    0.458613  -0.000004   0.000000  -0.000019  -0.000019  -0.010737
              13         14
     1  C    0.011625  -0.005833
     2  C   -0.000502   0.000080
     3  C   -0.004733   0.015502
     4  C   -0.050221   0.015502
     5  C    0.015362  -0.056122
     6  C    0.459997  -0.056122
     7  C   -0.055357   0.458613
     8  C    0.000097  -0.000004
     9  H    0.000002   0.000000
    10  H    0.000089  -0.000019
    11  H   -0.010474  -0.000019
    12  H   -0.000038  -0.010737
    13  H    0.624816  -0.010737
    14  H   -0.010737   0.624452
 Mulliken charges:
               1
     1  C    0.272762
     2  C   -0.035962
     3  C   -0.092332
     4  C   -0.092332
     5  C   -0.027730
     6  C   -0.027730
     7  C    0.010748
     8  C   -0.204013
     9  H    0.055190
    10  H    0.037901
    11  H    0.037901
    12  H    0.020076
    13  H    0.020076
    14  H    0.025445
 Sum of Mulliken charges =  -0.00000
 Mulliken charges with hydrogens summed into heavy atoms:
               1
     1  C    0.272762
     2  C   -0.035962
     3  C   -0.054431
     4  C   -0.054431
     5  C   -0.007654
     6  C   -0.007654
     7  C    0.036193
     8  C   -0.148823
 Electronic spatial extent (au):  <R**2>=            943.0151
 Charge=             -0.0000 electrons
 Dipole moment (field-independent basis, Debye):
    X=              0.0000    Y=              0.0000    Z=             -0.7321  Tot=              0.7321
 Quadrupole moment (field-independent basis, Debye-Ang):
   XX=            -51.1595   YY=            -42.9077   ZZ=            -39.2541
   XY=              0.0000   XZ=             -0.0000   YZ=             -0.0000
 Traceless Quadrupole moment (field-independent basis, Debye-Ang):
   XX=             -6.7191   YY=              1.5328   ZZ=              5.1863
   XY=              0.0000   XZ=             -0.0000   YZ=             -0.0000
 Octapole moment (field-independent basis, Debye-Ang**2):
  XXX=              0.0000  YYY=              0.0000  ZZZ=             17.7576  XYY=              0.0000
  XXY=              0.0000  XXZ=             -1.1175  XZZ=              0.0000  YZZ=             -0.0000
  YYZ=             -7.7034  XYZ=             -0.0000
 Hexadecapole moment (field-independent basis, Debye-Ang**3):
 XXXX=            -62.5196 YYYY=           -284.2753 ZZZZ=           -746.9468 XXXY=             -0.0000
 XXXZ=             -0.0000 YYYX=             -0.0000 YYYZ=             -0.0000 ZZZX=             -0.0000
 ZZZY=              0.0000 XXYY=            -68.7213 XXZZ=           -194.2767 YYZZ=           -215.5023
 XXYZ=             -0.0000 YYXZ=             -0.0000 ZZXY=             -0.0000
 N-N= 2.996918825579D+02 E-N=-1.315017978797D+03  KE= 3.073431499666D+02
 Symmetry A1   KE= 2.179647251280D+02
 Symmetry A2   KE= 2.250324249902D+00
 Symmetry B1   KE= 6.454179450959D+00
 Symmetry B2   KE= 8.067392113781D+01
 Calling FoFJK, ICntrl=      2127 FMM=F ISym2X=1 I1Cent= 0 IOpClX= 0 NMat=1 NMatS=1 NMatT=0.
 ***** Axes restored to original set *****
 -------------------------------------------------------------------
 Center     Atomic                   Forces (Hartrees/Bohr)
 Number     Number              X              Y              Z
 -------------------------------------------------------------------
      1        6          -0.000000000    0.000000000    0.000110944
      2        6          -0.000000000   -0.000000000    0.000086019
      3        6           0.000000000    0.000217337    0.000068593
      4        6           0.000000000   -0.000217337    0.000068593
      5        6           0.000000000    0.000194077   -0.000102590
      6        6           0.000000000   -0.000194077   -0.000102590
      7        6          -0.000000000   -0.000000000   -0.000262283
      8        6          -0.000000000   -0.000000000    0.000092971
      9        1          -0.000000000   -0.000000000    0.000118478
     10        1           0.000000000    0.000059426    0.000038802
     11        1           0.000000000   -0.000059426    0.000038802
     12        1           0.000000000    0.000081170   -0.000044213
     13        1           0.000000000   -0.000081170   -0.000044213
     14        1          -0.000000000    0.000000000   -0.000067313
 -------------------------------------------------------------------
 Cartesian Forces:  Max     0.000262283 RMS     0.000090387

 GradGradGradGradGradGradGradGradGradGradGradGradGradGradGradGradGradGrad
 Berny optimization.
 FormGI is forming the generalized inverse of G from B-inverse, IUseBI=4.
 Internal  Forces:  Max     0.000345874 RMS     0.000116670
 Search for a local minimum.
 Step number   1 out of a maximum of   70
 All quantities printed in internal units (Hartrees-Bohrs-Radians)
 Mixed Optimization -- En-DIIS/RFO-DIIS
 Second derivative matrix not updated -- first step.
 ITU=  0
     Eigenvalues ---    0.00618   0.00618   0.02069   0.02106   0.02156
     Eigenvalues ---    0.02173   0.02211   0.02212   0.02226   0.02239
     Eigenvalues ---    0.02242   0.04711   0.04711   0.16000   0.16000
     Eigenvalues ---    0.16000   0.16000   0.16000   0.22000   0.22000
     Eigenvalues ---    0.23474   0.25000   0.35814   0.35814   0.35821
     Eigenvalues ---    0.35908   0.35908   0.38384   0.41572   0.42026
     Eigenvalues ---    0.42588   0.45964   0.46435   0.47355   0.47884
     Eigenvalues ---    1.03932
 RFO step:  Lambda=-1.75388048D-06 EMin= 6.17716982D-03
 Linear search not attempted -- first point.
 Iteration  1 RMS(Cart)=  0.00050778 RMS(Int)=  0.00000001
 Iteration  2 RMS(Cart)=  0.00000001 RMS(Int)=  0.00000000
 ClnCor:  largest displacement from symmetrization is 3.21D-11 for atom     9.
 Variable       Old X    -DE/DX   Delta X   Delta X   Delta X     New X
                                 (Linear)    (Quad)   (Total)
    R1        2.69471   0.00030   0.00000   0.00072   0.00072   2.69543
    R2        2.64841   0.00035   0.00000   0.00076   0.00076   2.64917
    R3        2.64841   0.00035   0.00000   0.00076   0.00076   2.64917
    R4        2.27104   0.00021   0.00000   0.00020   0.00020   2.27125
    R5        2.62062   0.00031   0.00000   0.00065   0.00065   2.62128
    R6        2.04226   0.00007   0.00000   0.00020   0.00020   2.04246
    R7        2.62062   0.00031   0.00000   0.00065   0.00065   2.62128
    R8        2.04226   0.00007   0.00000   0.00020   0.00020   2.04246
    R9        2.62817   0.00032   0.00000   0.00067   0.00067   2.62885
   R10        2.04373   0.00009   0.00000   0.00026   0.00026   2.04399
   R11        2.62817   0.00032   0.00000   0.00067   0.00067   2.62885
   R12        2.04373   0.00009   0.00000   0.00026   0.00026   2.04399
   R13        2.04363   0.00007   0.00000   0.00019   0.00019   2.04382
   R14        2.00510   0.00012   0.00000   0.00031   0.00031   2.00541
    A1        2.10322   0.00002   0.00000   0.00008   0.00008   2.10330
    A2        2.10322   0.00002   0.00000   0.00008   0.00008   2.10330
    A3        2.07675  -0.00004   0.00000  -0.00016  -0.00016   2.07659
    A4        2.10008   0.00002   0.00000   0.00008   0.00008   2.10015
    A5        2.08091  -0.00001   0.00000  -0.00006  -0.00006   2.08085
    A6        2.10220  -0.00001   0.00000  -0.00002  -0.00002   2.10218
    A7        2.10008   0.00002   0.00000   0.00008   0.00008   2.10015
    A8        2.08091  -0.00001   0.00000  -0.00006  -0.00006   2.08085
    A9        2.10220  -0.00001   0.00000  -0.00002  -0.00002   2.10218
   A10        2.09942   0.00000   0.00000   0.00002   0.00002   2.09944
   A11        2.08814  -0.00000   0.00000  -0.00002  -0.00002   2.08812
   A12        2.09562  -0.00000   0.00000   0.00000   0.00000   2.09562
   A13        2.09942   0.00000   0.00000   0.00002   0.00002   2.09944
   A14        2.08814  -0.00000   0.00000  -0.00002  -0.00002   2.08812
   A15        2.09562  -0.00000   0.00000   0.00000   0.00000   2.09562
   A16        2.09063  -0.00001   0.00000  -0.00004  -0.00004   2.09058
   A17        2.09628   0.00000   0.00000   0.00002   0.00002   2.09630
   A18        2.09628   0.00000   0.00000   0.00002   0.00002   2.09630
   A19        3.14159   0.00000   0.00000   0.00000   0.00000   3.14159
   A20        3.14159   0.00000   0.00000   0.00000  -0.00000   3.14159
   A21        3.14159   0.00000   0.00000   0.00000   0.00000   3.14159
   A22        3.14159   0.00000   0.00000   0.00000   0.00000   3.14159
    D1        3.14159  -0.00000   0.00000  -0.00000   0.00000   3.14159
    D2        0.00000  -0.00000   0.00000  -0.00000  -0.00000   0.00000
    D3       -0.00000   0.00000   0.00000   0.00000   0.00000   0.00000
    D4        3.14159   0.00000   0.00000   0.00000   0.00000   3.14159
    D5        3.14159   0.00000   0.00000   0.00000   0.00000   3.14159
    D6       -0.00000  -0.00000   0.00000  -0.00000   0.00000   0.00000
    D7        0.00000  -0.00000   0.00000  -0.00000   0.00000   0.00000
    D8        3.14159  -0.00000   0.00000  -0.00000   0.00000   3.14159
    D9       -0.00000  -0.00000   0.00000  -0.00000   0.00000   0.00000
   D10        3.14159  -0.00000   0.00000  -0.00000   0.00000   3.14159
   D11        3.14159  -0.00000   0.00000  -0.00000   0.00000   3.14159
   D12       -0.00000  -0.00000   0.00000  -0.00000   0.00000   0.00000
   D13        0.00000  -0.00000   0.00000  -0.00000   0.00000   0.00000
   D14        3.14159  -0.00000   0.00000  -0.00000   0.00000   3.14159
   D15        3.14159   0.00000   0.00000   0.00000   0.00000   3.14159
   D16        0.00000   0.00000   0.00000   0.00000   0.00000   0.00000
   D17        0.00000  -0.00000   0.00000  -0.00000   0.00000   0.00000
   D18        3.14159   0.00000   0.00000   0.00000   0.00000   3.14159
   D19        3.14159  -0.00000   0.00000  -0.00000   0.00000   3.14159
   D20        0.00000  -0.00000   0.00000  -0.00000  -0.00000   0.00000
   D21       -0.00000   0.00000   0.00000   0.00000   0.00000   0.00000
   D22        3.14159   0.00000   0.00000   0.00000   0.00000   3.14159
   D23        3.14159   0.00000   0.00000   0.00000   0.00000   3.14159
   D24        0.00000   0.00000   0.00000   0.00000   0.00000   0.00000
         Item               Value     Threshold  Converged?
 Maximum Force            0.000346     0.000450     YES
 RMS     Force            0.000117     0.000300     YES
 Maximum Displacement     0.001775     0.001800     YES
 RMS     Displacement     0.000508     0.001200     YES
 Predicted change in Energy=-8.769402D-07
 Optimization completed.
    -- Stationary point found.
                           ----------------------------
                           !   Optimized Parameters   !
                           ! (Angstroms and Degrees)  !
 --------------------------                            --------------------------
 ! Name  Definition              Value          Derivative Info.                !
 --------------------------------------------------------------------------------
 ! R1    R(1,2)                  1.426          -DE/DX =    0.0003              !
 ! R2    R(1,3)                  1.4015         -DE/DX =    0.0003              !
 ! R3    R(1,4)                  1.4015         -DE/DX =    0.0003              !
 ! R4    R(2,8)                  1.2018         -DE/DX =    0.0002              !
 ! R5    R(3,5)                  1.3868         -DE/DX =    0.0003              !
 ! R6    R(3,10)                 1.0807         -DE/DX =    0.0001              !
 ! R7    R(4,6)                  1.3868         -DE/DX =    0.0003              !
 ! R8    R(4,11)                 1.0807         -DE/DX =    0.0001              !
 ! R9    R(5,7)                  1.3908         -DE/DX =    0.0003              !
 ! R10   R(5,12)                 1.0815         -DE/DX =    0.0001              !
 ! R11   R(6,7)                  1.3908         -DE/DX =    0.0003              !
 ! R12   R(6,13)                 1.0815         -DE/DX =    0.0001              !
 ! R13   R(7,14)                 1.0814         -DE/DX =    0.0001              !
 ! R14   R(8,9)                  1.0611         -DE/DX =    0.0001              !
 ! A1    A(2,1,3)              120.5055         -DE/DX =    0.0                 !
 ! A2    A(2,1,4)              120.5055         -DE/DX =    0.0                 !
 ! A3    A(3,1,4)              118.989          -DE/DX =    0.0                 !
 ! A4    A(1,3,5)              120.3255         -DE/DX =    0.0                 !
 ! A5    A(1,3,10)             119.2275         -DE/DX =    0.0                 !
 ! A6    A(5,3,10)             120.4471         -DE/DX =    0.0                 !
 ! A7    A(1,4,6)              120.3255         -DE/DX =    0.0                 !
 ! A8    A(1,4,11)             119.2275         -DE/DX =    0.0                 !
 ! A9    A(6,4,11)             120.4471         -DE/DX =    0.0                 !
 ! A10   A(3,5,7)              120.2881         -DE/DX =    0.0                 !
 ! A11   A(3,5,12)             119.6418         -DE/DX =    0.0                 !
 ! A12   A(7,5,12)             120.0702         -DE/DX =    0.0                 !
 ! A13   A(4,6,7)              120.2881         -DE/DX =    0.0                 !
 ! A14   A(4,6,13)             119.6418         -DE/DX =    0.0                 !
 ! A15   A(7,6,13)             120.0702         -DE/DX =    0.0                 !
 ! A16   A(5,7,6)              119.784          -DE/DX =    0.0                 !
 ! A17   A(5,7,14)             120.108          -DE/DX =    0.0                 !
 ! A18   A(6,7,14)             120.108          -DE/DX =    0.0                 !
 ! A19   L(1,2,8,10,-1)        180.0            -DE/DX =    0.0                 !
 ! A20   L(2,8,9,10,-1)        180.0            -DE/DX =    0.0                 !
 ! A21   L(1,2,8,10,-2)        180.0            -DE/DX =    0.0                 !
 ! A22   L(2,8,9,10,-2)        180.0            -DE/DX =    0.0                 !
 ! D1    D(2,1,3,5)            180.0            -DE/DX =    0.0                 !
 ! D2    D(2,1,3,10)             0.0            -DE/DX =    0.0                 !
 ! D3    D(4,1,3,5)              0.0            -DE/DX =    0.0                 !
 ! D4    D(4,1,3,10)           180.0            -DE/DX =    0.0                 !
 ! D5    D(2,1,4,6)            180.0            -DE/DX =    0.0                 !
 ! D6    D(2,1,4,11)             0.0            -DE/DX =    0.0                 !
 ! D7    D(3,1,4,6)              0.0            -DE/DX =    0.0                 !
 ! D8    D(3,1,4,11)           180.0            -DE/DX =    0.0                 !
 ! D9    D(1,3,5,7)              0.0            -DE/DX =    0.0                 !
 ! D10   D(1,3,5,12)           180.0            -DE/DX =    0.0                 !
 ! D11   D(10,3,5,7)           180.0            -DE/DX =    0.0                 !
 ! D12   D(10,3,5,12)            0.0            -DE/DX =    0.0                 !
 ! D13   D(1,4,6,7)              0.0            -DE/DX =    0.0                 !
 ! D14   D(1,4,6,13)           180.0            -DE/DX =    0.0                 !
 ! D15   D(11,4,6,7)           180.0            -DE/DX =    0.0                 !
 ! D16   D(11,4,6,13)            0.0            -DE/DX =    0.0                 !
 ! D17   D(3,5,7,6)              0.0            -DE/DX =    0.0                 !
 ! D18   D(3,5,7,14)           180.0            -DE/DX =    0.0                 !
 ! D19   D(12,5,7,6)           180.0            -DE/DX =    0.0                 !
 ! D20   D(12,5,7,14)            0.0            -DE/DX =    0.0                 !
 ! D21   D(4,6,7,5)              0.0            -DE/DX =    0.0                 !
 ! D22   D(4,6,7,14)           180.0            -DE/DX =    0.0                 !
 ! D23   D(13,6,7,5)           180.0            -DE/DX =    0.0                 !
 ! D24   D(13,6,7,14)            0.0            -DE/DX =    0.0                 !
 --------------------------------------------------------------------------------
 GradGradGradGradGradGradGradGradGradGradGradGradGradGradGradGradGradGrad

                          Input orientation:                          
 ---------------------------------------------------------------------
 Center     Atomic      Atomic             Coordinates (Angstroms)
 Number     Number       Type             X           Y           Z
 ---------------------------------------------------------------------
      1          6           0       -0.000000    0.000000    0.591886
      2          6           0       -0.000000    0.000000    2.017866
      3          6           0        0.000000    1.207487   -0.119535
      4          6           0       -0.000000   -1.207487   -0.119535
      5          6           0        0.000000    1.203129   -1.506303
      6          6           0       -0.000000   -1.203129   -1.506303
      7          6           0        0.000000    0.000000   -2.203957
      8          6           0       -0.000000    0.000000    3.219650
      9          1           0       -0.000000    0.000000    4.280705
     10          1           0        0.000000    2.140887    0.425179
     11          1           0       -0.000000   -2.140887    0.425179
     12          1           0        0.000000    2.141409   -2.044136
     13          1           0       -0.000000   -2.141409   -2.044136
     14          1           0        0.000000    0.000000   -3.285398
 ---------------------------------------------------------------------
                    Distance matrix (angstroms):
                    1          2          3          4          5
     1  C    0.000000
     2  C    1.425980   0.000000
     3  C    1.401479   2.454895   0.000000
     4  C    1.401479   2.454895   2.414974   0.000000
     5  C    2.418660   3.723881   1.386775   2.781042   0.000000
     6  C    2.418660   3.723881   2.781042   1.386775   2.406258
     7  C    2.795843   4.221823   2.408908   2.408908   1.390770
     8  C    2.627764   1.201784   3.550800   3.550800   4.876695
     9  H    3.688819   2.262839   4.562909   4.562909   5.910751
    10  H    2.147368   2.668342   1.080717   3.392392   2.147094
    11  H    2.147368   2.668342   3.392392   1.080717   3.861744
    12  H    3.396210   4.591894   2.139229   3.862537   1.081496
    13  H    3.396210   4.591894   3.862537   2.139229   3.387506
    14  H    3.877284   5.303264   3.388320   3.388320   2.147719
                    6          7          8          9         10
     6  C    0.000000
     7  C    1.390770   0.000000
     8  C    4.876695   5.423607   0.000000
     9  H    5.910751   6.484662   1.061055   0.000000
    10  H    3.861744   3.390539   3.520293   4.410043   0.000000
    11  H    2.147094   3.390539   3.520293   4.410043   4.281774
    12  H    3.387506   2.147365   5.682700   6.677518   2.469315
    13  H    1.081496   2.147365   5.682700   6.677518   4.943235
    14  H    2.147719   1.081441   6.505048   7.566103   4.283898
                   11         12         13         14
    11  H    0.000000
    12  H    4.943235   0.000000
    13  H    2.469315   4.282818   0.000000
    14  H    4.283898   2.475149   2.475149   0.000000
 Stoichiometry    C8H6
 Framework group  C2V[C2(HCCCCH),SGV(C4H4)]
 Deg. of freedom    13
 Full point group                 C2V     NOp   4
 Largest Abelian subgroup         C2V     NOp   4
 Largest concise Abelian subgroup C2      NOp   2
                         Standard orientation:                         
 ---------------------------------------------------------------------
 Center     Atomic      Atomic             Coordinates (Angstroms)
 Number     Number       Type             X           Y           Z
 ---------------------------------------------------------------------
      1          6           0        0.000000   -0.000000    0.591886
      2          6           0        0.000000   -0.000000    2.017866
      3          6           0        0.000000    1.207487   -0.119535
      4          6           0       -0.000000   -1.207487   -0.119535
      5          6           0        0.000000    1.203129   -1.506303
      6          6           0       -0.000000   -1.203129   -1.506303
      7          6           0        0.000000    0.000000   -2.203957
      8          6           0        0.000000   -0.000000    3.219650
      9          1           0        0.000000   -0.000000    4.280705
     10          1           0        0.000000    2.140887    0.425179
     11          1           0       -0.000000   -2.140887    0.425179
     12          1           0        0.000000    2.141409   -2.044136
     13          1           0       -0.000000   -2.141409   -2.044136
     14          1           0        0.000000    0.000000   -3.285398
 ---------------------------------------------------------------------
 Rotational constants (GHZ):           5.7289713           1.5378346           1.2123910
 1\1\GINC-GAMBA\FOpt\RB3LYP\Gen\C8H6\IRIKURA\29-Sep-2023\0\\# b3lyp/gen
  opt freq CPHF(Grid=OneStep)\\phenylacetylene, B3LYP/pcseg-2\\0,1\C,0.
 ,0.,0.591886\C,0.,0.,2.017866\C,0.,1.207487,-0.119535\C,0.,-1.207487,-
 0.119535\C,0.,1.203129,-1.506303\C,0.,-1.203129,-1.506303\C,0.,0.,-2.2
 03957\C,0.,0.,3.21965\H,0.,0.,4.280705\H,0.,2.140887,0.425179\H,0.,-2.
 140887,0.425179\H,0.,2.141409,-2.044136\H,0.,-2.141409,-2.044136\H,0.,
 0.,-3.285398\\Version=ES64L-G16RevB.01\State=1-A1\HF=-308.5145957\RMSD
 =5.571e-09\RMSF=9.039e-05\Dipole=0.,0.,-0.2880243\Quadrupole=-4.995472
 2,1.1395807,3.8558914,0.,0.,0.\PG=C02V [C2(H1C1C1C1C1H1),SGV(C4H4)]\\@


 TRUTH, IN SCIENCE, CAN BE DEFINED AS THE WORKING HYPOTHESIS 
 BEST FITTED TO OPEN THE WAY TO THE NEXT BETTER ONE.

                              -- KONRAD LORENZ
 Job cpu time:       0 days  0 hours  5 minutes 34.3 seconds.
 Elapsed time:       0 days  0 hours  1 minutes 23.7 seconds.
 File lengths (MBytes):  RWF=     63 Int=      0 D2E=      0 Chk=      8 Scr=      1
 Normal termination of Gaussian 16 at Fri Sep 29 00:23:54 2023.
 Link1:  Proceeding to internal job step number  2.
 ------------------------------------------------------------------
 #N Geom=AllCheck Guess=TCheck SCRF=Check GenChk RB3LYP/ChkBas Freq
 ------------------------------------------------------------------
 1/10=4,29=7,30=1,38=1,40=1/1,3;
 2/12=2,40=1/2;
 3/5=7,6=2,11=2,14=-4,25=1,30=1,67=1,70=2,71=2,74=-5,82=7,116=1,140=1/1,2,3;
 4/5=101/1;
 5/5=2,38=6,98=1/2;
 8/6=4,10=90,11=11/1;
 11/6=1,8=1,9=11,15=111,16=1/1,2,10;
 10/6=1,60=-420/2;
 6/7=2,8=2,9=2,10=2,28=1/1;
 7/8=1,10=1,25=1/1,2,3,16;
 1/10=4,30=1/3;
 99//99;
 Structure from the checkpoint file:  "phcch.chk"
 ------------------------------
 phenylacetylene, B3LYP/pcseg-2
 ------------------------------
 Charge =  0 Multiplicity = 1
 Redundant internal coordinates found in file.  (old form).
 C,0,0.,0.,0.591886
 C,0,0.,0.,2.017866
 C,0,0.,1.207487,-0.119535
 C,0,0.,-1.207487,-0.119535
 C,0,0.,1.203129,-1.506303
 C,0,0.,-1.203129,-1.506303
 C,0,0.,0.,-2.203957
 C,0,0.,0.,3.21965
 H,0,0.,0.,4.280705
 H,0,0.,2.140887,0.425179
 H,0,0.,-2.140887,0.425179
 H,0,0.,2.141409,-2.044136
 H,0,0.,-2.141409,-2.044136
 H,0,0.,0.,-3.285398
 Recover connectivity data from disk.

 GradGradGradGradGradGradGradGradGradGradGradGradGradGradGradGradGradGrad
 Berny optimization.
 Initialization pass.
                           ----------------------------
                           !    Initial Parameters    !
                           ! (Angstroms and Degrees)  !
 --------------------------                            --------------------------
 ! Name  Definition              Value          Derivative Info.                !
 --------------------------------------------------------------------------------
 ! R1    R(1,2)                  1.426          calculate D2E/DX2 analytically  !
 ! R2    R(1,3)                  1.4015         calculate D2E/DX2 analytically  !
 ! R3    R(1,4)                  1.4015         calculate D2E/DX2 analytically  !
 ! R4    R(2,8)                  1.2018         calculate D2E/DX2 analytically  !
 ! R5    R(3,5)                  1.3868         calculate D2E/DX2 analytically  !
 ! R6    R(3,10)                 1.0807         calculate D2E/DX2 analytically  !
 ! R7    R(4,6)                  1.3868         calculate D2E/DX2 analytically  !
 ! R8    R(4,11)                 1.0807         calculate D2E/DX2 analytically  !
 ! R9    R(5,7)                  1.3908         calculate D2E/DX2 analytically  !
 ! R10   R(5,12)                 1.0815         calculate D2E/DX2 analytically  !
 ! R11   R(6,7)                  1.3908         calculate D2E/DX2 analytically  !
 ! R12   R(6,13)                 1.0815         calculate D2E/DX2 analytically  !
 ! R13   R(7,14)                 1.0814         calculate D2E/DX2 analytically  !
 ! R14   R(8,9)                  1.0611         calculate D2E/DX2 analytically  !
 ! A1    A(2,1,3)              120.5055         calculate D2E/DX2 analytically  !
 ! A2    A(2,1,4)              120.5055         calculate D2E/DX2 analytically  !
 ! A3    A(3,1,4)              118.989          calculate D2E/DX2 analytically  !
 ! A4    A(1,3,5)              120.3255         calculate D2E/DX2 analytically  !
 ! A5    A(1,3,10)             119.2275         calculate D2E/DX2 analytically  !
 ! A6    A(5,3,10)             120.4471         calculate D2E/DX2 analytically  !
 ! A7    A(1,4,6)              120.3255         calculate D2E/DX2 analytically  !
 ! A8    A(1,4,11)             119.2275         calculate D2E/DX2 analytically  !
 ! A9    A(6,4,11)             120.4471         calculate D2E/DX2 analytically  !
 ! A10   A(3,5,7)              120.2881         calculate D2E/DX2 analytically  !
 ! A11   A(3,5,12)             119.6418         calculate D2E/DX2 analytically  !
 ! A12   A(7,5,12)             120.0702         calculate D2E/DX2 analytically  !
 ! A13   A(4,6,7)              120.2881         calculate D2E/DX2 analytically  !
 ! A14   A(4,6,13)             119.6418         calculate D2E/DX2 analytically  !
 ! A15   A(7,6,13)             120.0702         calculate D2E/DX2 analytically  !
 ! A16   A(5,7,6)              119.784          calculate D2E/DX2 analytically  !
 ! A17   A(5,7,14)             120.108          calculate D2E/DX2 analytically  !
 ! A18   A(6,7,14)             120.108          calculate D2E/DX2 analytically  !
 ! A19   L(1,2,8,10,-1)        180.0            calculate D2E/DX2 analytically  !
 ! A20   L(2,8,9,10,-1)        180.0            calculate D2E/DX2 analytically  !
 ! A21   L(1,2,8,10,-2)        180.0            calculate D2E/DX2 analytically  !
 ! A22   L(2,8,9,10,-2)        180.0            calculate D2E/DX2 analytically  !
 ! D1    D(2,1,3,5)            180.0            calculate D2E/DX2 analytically  !
 ! D2    D(2,1,3,10)             0.0            calculate D2E/DX2 analytically  !
 ! D3    D(4,1,3,5)              0.0            calculate D2E/DX2 analytically  !
 ! D4    D(4,1,3,10)           180.0            calculate D2E/DX2 analytically  !
 ! D5    D(2,1,4,6)            180.0            calculate D2E/DX2 analytically  !
 ! D6    D(2,1,4,11)             0.0            calculate D2E/DX2 analytically  !
 ! D7    D(3,1,4,6)              0.0            calculate D2E/DX2 analytically  !
 ! D8    D(3,1,4,11)           180.0            calculate D2E/DX2 analytically  !
 ! D9    D(1,3,5,7)              0.0            calculate D2E/DX2 analytically  !
 ! D10   D(1,3,5,12)           180.0            calculate D2E/DX2 analytically  !
 ! D11   D(10,3,5,7)           180.0            calculate D2E/DX2 analytically  !
 ! D12   D(10,3,5,12)            0.0            calculate D2E/DX2 analytically  !
 ! D13   D(1,4,6,7)              0.0            calculate D2E/DX2 analytically  !
 ! D14   D(1,4,6,13)           180.0            calculate D2E/DX2 analytically  !
 ! D15   D(11,4,6,7)           180.0            calculate D2E/DX2 analytically  !
 ! D16   D(11,4,6,13)            0.0            calculate D2E/DX2 analytically  !
 ! D17   D(3,5,7,6)              0.0            calculate D2E/DX2 analytically  !
 ! D18   D(3,5,7,14)           180.0            calculate D2E/DX2 analytically  !
 ! D19   D(12,5,7,6)           180.0            calculate D2E/DX2 analytically  !
 ! D20   D(12,5,7,14)            0.0            calculate D2E/DX2 analytically  !
 ! D21   D(4,6,7,5)              0.0            calculate D2E/DX2 analytically  !
 ! D22   D(4,6,7,14)           180.0            calculate D2E/DX2 analytically  !
 ! D23   D(13,6,7,5)           180.0            calculate D2E/DX2 analytically  !
 ! D24   D(13,6,7,14)            0.0            calculate D2E/DX2 analytically  !
 --------------------------------------------------------------------------------
 Trust Radius=3.00D-01 FncErr=1.00D-07 GrdErr=1.00D-07 EigMax=2.50D+02 EigMin=1.00D-04
 Number of steps in this run=      2 maximum allowed number of steps=      2.
 GradGradGradGradGradGradGradGradGradGradGradGradGradGradGradGradGradGrad

                          Input orientation:                          
 ---------------------------------------------------------------------
 Center     Atomic      Atomic             Coordinates (Angstroms)
 Number     Number       Type             X           Y           Z
 ---------------------------------------------------------------------
      1          6           0       -0.000000   -0.000000    0.591886
      2          6           0       -0.000000   -0.000000    2.017866
      3          6           0        0.000000    1.207487   -0.119535
      4          6           0       -0.000000   -1.207487   -0.119535
      5          6           0        0.000000    1.203129   -1.506303
      6          6           0       -0.000000   -1.203129   -1.506303
      7          6           0        0.000000    0.000000   -2.203957
      8          6           0       -0.000000   -0.000000    3.219650
      9          1           0       -0.000000   -0.000000    4.280705
     10          1           0        0.000000    2.140887    0.425179
     11          1           0       -0.000000   -2.140887    0.425179
     12          1           0        0.000000    2.141409   -2.044136
     13          1           0       -0.000000   -2.141409   -2.044136
     14          1           0        0.000000    0.000000   -3.285398
 ---------------------------------------------------------------------
                    Distance matrix (angstroms):
                    1          2          3          4          5
     1  C    0.000000
     2  C    1.425980   0.000000
     3  C    1.401479   2.454895   0.000000
     4  C    1.401479   2.454895   2.414974   0.000000
     5  C    2.418660   3.723881   1.386775   2.781042   0.000000
     6  C    2.418660   3.723881   2.781042   1.386775   2.406258
     7  C    2.795843   4.221823   2.408908   2.408908   1.390770
     8  C    2.627764   1.201784   3.550800   3.550800   4.876695
     9  H    3.688819   2.262839   4.562909   4.562909   5.910751
    10  H    2.147368   2.668342   1.080717   3.392392   2.147094
    11  H    2.147368   2.668342   3.392392   1.080717   3.861744
    12  H    3.396210   4.591894   2.139229   3.862537   1.081496
    13  H    3.396210   4.591894   3.862537   2.139229   3.387506
    14  H    3.877284   5.303264   3.388320   3.388320   2.147719
                    6          7          8          9         10
     6  C    0.000000
     7  C    1.390770   0.000000
     8  C    4.876695   5.423607   0.000000
     9  H    5.910751   6.484662   1.061055   0.000000
    10  H    3.861744   3.390539   3.520293   4.410043   0.000000
    11  H    2.147094   3.390539   3.520293   4.410043   4.281774
    12  H    3.387506   2.147365   5.682700   6.677518   2.469315
    13  H    1.081496   2.147365   5.682700   6.677518   4.943235
    14  H    2.147719   1.081441   6.505048   7.566103   4.283898
                   11         12         13         14
    11  H    0.000000
    12  H    4.943235   0.000000
    13  H    2.469315   4.282818   0.000000
    14  H    4.283898   2.475149   2.475149   0.000000
 Stoichiometry    C8H6
 Framework group  C2V[C2(HCCCCH),SGV(C4H4)]
 Deg. of freedom    13
 Full point group                 C2V     NOp   4
 Largest Abelian subgroup         C2V     NOp   4
 Largest concise Abelian subgroup C2      NOp   2
                         Standard orientation:                         
 ---------------------------------------------------------------------
 Center     Atomic      Atomic             Coordinates (Angstroms)
 Number     Number       Type             X           Y           Z
 ---------------------------------------------------------------------
      1          6           0       -0.000000    0.000000    0.591886
      2          6           0       -0.000000    0.000000    2.017866
      3          6           0       -0.000000    1.207487   -0.119535
      4          6           0       -0.000000   -1.207487   -0.119535
      5          6           0       -0.000000    1.203129   -1.506303
      6          6           0       -0.000000   -1.203129   -1.506303
      7          6           0        0.000000   -0.000000   -2.203957
      8          6           0       -0.000000    0.000000    3.219650
      9          1           0       -0.000000    0.000000    4.280705
[...]
 Alpha virt. eigenvalues --    3.90819   3.91826   3.95491   3.97807   4.00462
 Alpha virt. eigenvalues --    4.09118   4.14674   4.29555   4.30665   4.31942
 Alpha virt. eigenvalues --    4.33634   4.33918   4.39938   4.40723   4.44742
 Alpha virt. eigenvalues --    4.49556   4.51386   4.52498   4.53243   4.54129
 Alpha virt. eigenvalues --    4.56204   4.60640   4.61464   4.65968   4.66022
 Alpha virt. eigenvalues --    4.66109   4.68322   4.69895   4.74167   4.80234
 Alpha virt. eigenvalues --    4.80482   4.82236   4.82764   4.84529   4.84605
 Alpha virt. eigenvalues --    4.85224   4.86814   4.94551   4.95733   4.95999
 Alpha virt. eigenvalues --    5.00958   5.02551   5.13815   5.16572   5.16751
 Alpha virt. eigenvalues --    5.24198   5.28240   5.31244   5.34681   5.35744
 Alpha virt. eigenvalues --    5.35881   5.36137   5.36843   5.38234   5.38549
 Alpha virt. eigenvalues --    5.48329   5.48719   5.51699   5.60814   5.61301
 Alpha virt. eigenvalues --    5.62229   5.64676   5.64865   5.69901   5.72135
 Alpha virt. eigenvalues --    5.74950   5.76436   5.77467   5.80889   5.81893
 Alpha virt. eigenvalues --    5.82681   5.87356   5.92996   5.93740   6.01618
 Alpha virt. eigenvalues --    6.08137   6.08540   6.08551   6.11013   6.13485
 Alpha virt. eigenvalues --    6.20087   6.21992   6.24133   6.25252   6.29940
 Alpha virt. eigenvalues --    6.31676   6.32581   6.34696   6.41094   6.45166
 Alpha virt. eigenvalues --    6.51649   6.52378   6.58383   6.59866   6.65850
 Alpha virt. eigenvalues --    6.68451   6.77532   6.78017   6.80189   6.94287
 Alpha virt. eigenvalues --    7.11281   7.12971   7.14882   7.14945   7.32898
 Alpha virt. eigenvalues --    7.33875   7.35468   7.36365   7.44587   7.45609
 Alpha virt. eigenvalues --    7.48496   7.56746   7.65342   7.68257   7.71890
 Alpha virt. eigenvalues --    7.83285   7.88886   7.93277   7.98572   8.02644
 Alpha virt. eigenvalues --    8.04643   8.10334   8.16804   8.16846   8.22778
 Alpha virt. eigenvalues --    8.23438   8.39902   8.50099   8.51274   8.56036
 Alpha virt. eigenvalues --    8.57551   8.62770   8.71959   8.74566   8.80786
 Alpha virt. eigenvalues --    8.83451   8.85626   8.87624   8.94520   8.99856
 Alpha virt. eigenvalues --    9.01872   9.10126   9.13559   9.26255   9.31030
 Alpha virt. eigenvalues --    9.36200   9.37636   9.41410   9.48298   9.51064
 Alpha virt. eigenvalues --    9.59911   9.64838   9.66764   9.78158   9.83746
 Alpha virt. eigenvalues --    9.84226  10.03311  10.06070  10.10819  10.20207
 Alpha virt. eigenvalues --   10.39273  10.42552  10.56033  20.53201  20.77704
 Alpha virt. eigenvalues --   20.79720  21.03055  21.06769  21.21509  21.24526
 Alpha virt. eigenvalues --   21.35867  21.40118  21.48365  21.49522  21.51603
 Alpha virt. eigenvalues --   21.72408  21.76264  21.77824  21.80366  22.09409
 Alpha virt. eigenvalues --   22.35093  22.40139  22.44242  22.71289  22.75233
 Alpha virt. eigenvalues --   22.80299  23.21667  23.52427  23.68821  23.70489
 Alpha virt. eigenvalues --   23.73935  23.89978  23.94117  24.27999  26.66471
          Condensed to atoms (all electrons):
               1          2          3          4          5          6
     1  C    5.197871   0.146817   0.490366   0.490366  -0.202086  -0.202086
     2  C    0.146817   4.878754  -0.102910  -0.102910   0.021444   0.021444
     3  C    0.490366  -0.102910   5.159996  -0.071965   0.502021  -0.033204
     4  C    0.490366  -0.102910  -0.071965   5.159996  -0.033204   0.502021
     5  C   -0.202086   0.021444   0.502021  -0.033204   5.114477  -0.147340
     6  C   -0.202086   0.021444  -0.033204   0.502021  -0.147340   5.114477
     7  C   -0.030936   0.003158  -0.169711  -0.169711   0.508489   0.508489
     8  C   -0.168933   1.010615  -0.001327  -0.001327   0.014270   0.014270
     9  H   -0.004106  -0.019548   0.000550   0.000550   0.000160   0.000160
    10  H   -0.025039  -0.002101   0.459730   0.001407  -0.030161  -0.001146
    11  H   -0.025039  -0.002101   0.001407   0.459730  -0.001146  -0.030161
    12  H    0.008937  -0.000444  -0.035710  -0.001511   0.450385   0.003143
    13  H    0.008937  -0.000444  -0.001511  -0.035710   0.003143   0.450385
    14  H    0.001839  -0.000036   0.000370   0.000370  -0.024130  -0.024130
               7          8          9         10         11         12
     1  C   -0.030936  -0.168933  -0.004106  -0.025039  -0.025039   0.008937
     2  C    0.003158   1.010615  -0.019548  -0.002101  -0.002101  -0.000444
     3  C   -0.169711  -0.001327   0.000550   0.459730   0.001407  -0.035710
     4  C   -0.169711  -0.001327   0.000550   0.001407   0.459730  -0.001511
     5  C    0.508489   0.014270   0.000160  -0.030161  -0.001146   0.450385
     6  C    0.508489   0.014270   0.000160  -0.001146  -0.030161   0.003143
     7  C    5.084631   0.009929   0.000044   0.002387   0.002387  -0.021889
     8  C    0.009929   5.222873   0.436485   0.000522   0.000522   0.000100
     9  H    0.000044   0.436485   0.339778  -0.000039  -0.000039  -0.000000
    10  H    0.002387   0.000522  -0.000039   0.450099   0.000117  -0.007776
    11  H    0.002387   0.000522  -0.000039   0.000117   0.450099  -0.000039
    12  H   -0.021889   0.000100  -0.000000  -0.007776  -0.000039   0.467743
    13  H   -0.021889   0.000100  -0.000000  -0.000039  -0.007776  -0.000022
    14  H    0.451870  -0.000031  -0.000000   0.000037   0.000037  -0.008018
              13         14
     1  C    0.008937   0.001839
     2  C   -0.000444  -0.000036
     3  C   -0.001511   0.000370
     4  C   -0.035710   0.000370
     5  C    0.003143  -0.024130
     6  C    0.450385  -0.024130
     7  C   -0.021889   0.451870
     8  C    0.000100  -0.000031
     9  H   -0.000000  -0.000000
    10  H   -0.000039   0.000037
    11  H   -0.007776   0.000037
    12  H   -0.000022  -0.008018
    13  H    0.467743  -0.008018
    14  H   -0.008018   0.467240
          Atomic-Atomic Spin Densities.
               1          2          3          4          5          6
     1  C    0.000000   0.000000   0.000000   0.000000   0.000000   0.000000
     2  C    0.000000   0.000000   0.000000   0.000000   0.000000   0.000000
     3  C    0.000000   0.000000   0.000000   0.000000   0.000000   0.000000
     4  C    0.000000   0.000000   0.000000   0.000000   0.000000   0.000000
     5  C    0.000000   0.000000   0.000000   0.000000   0.000000   0.000000
     6  C    0.000000   0.000000   0.000000   0.000000   0.000000   0.000000
     7  C    0.000000   0.000000   0.000000   0.000000   0.000000   0.000000
     8  C    0.000000   0.000000   0.000000   0.000000   0.000000   0.000000
     9  H    0.000000   0.000000   0.000000   0.000000   0.000000   0.000000
    10  H    0.000000   0.000000   0.000000   0.000000   0.000000   0.000000
    11  H    0.000000   0.000000   0.000000   0.000000   0.000000   0.000000
    12  H    0.000000   0.000000   0.000000   0.000000   0.000000   0.000000
    13  H    0.000000   0.000000   0.000000   0.000000   0.000000   0.000000
    14  H    0.000000   0.000000   0.000000   0.000000   0.000000   0.000000
               7          8          9         10         11         12
     1  C    0.000000   0.000000   0.000000   0.000000   0.000000   0.000000
     2  C    0.000000   0.000000   0.000000   0.000000   0.000000   0.000000
     3  C    0.000000   0.000000   0.000000   0.000000   0.000000   0.000000
     4  C    0.000000   0.000000   0.000000   0.000000   0.000000   0.000000
     5  C    0.000000   0.000000   0.000000   0.000000   0.000000   0.000000
     6  C    0.000000   0.000000   0.000000   0.000000   0.000000   0.000000
     7  C    0.000000   0.000000   0.000000   0.000000   0.000000   0.000000
     8  C    0.000000   0.000000   0.000000   0.000000   0.000000   0.000000
     9  H    0.000000   0.000000   0.000000   0.000000   0.000000   0.000000
    10  H    0.000000   0.000000   0.000000   0.000000   0.000000   0.000000
    11  H    0.000000   0.000000   0.000000   0.000000   0.000000   0.000000
    12  H    0.000000   0.000000   0.000000   0.000000   0.000000   0.000000
    13  H    0.000000   0.000000   0.000000   0.000000   0.000000   0.000000
    14  H    0.000000   0.000000   0.000000   0.000000   0.000000   0.000000
              13         14
     1  C    0.000000   0.000000
     2  C    0.000000   0.000000
     3  C    0.000000   0.000000
     4  C    0.000000   0.000000
     5  C    0.000000   0.000000
     6  C    0.000000   0.000000
     7  C    0.000000   0.000000
     8  C    0.000000   0.000000
     9  H    0.000000   0.000000
    10  H    0.000000   0.000000
    11  H    0.000000   0.000000
    12  H    0.000000   0.000000
    13  H    0.000000   0.000000
    14  H    0.000000   0.000000
 Mulliken charges and spin densities:
               1          2
     1  C    0.313092   0.000000
     2  C    0.148261   0.000000
     3  C   -0.198102   0.000000
     4  C   -0.198102   0.000000
     5  C   -0.176324   0.000000
     6  C   -0.176324   0.000000
     7  C   -0.157247   0.000000
     8  C   -0.538070   0.000000
     9  H    0.246005   0.000000
    10  H    0.152003   0.000000
    11  H    0.152003   0.000000
    12  H    0.145103   0.000000
    13  H    0.145103   0.000000
    14  H    0.142598   0.000000
 Sum of Mulliken charges =  -0.00000   0.00000
 Mulliken charges and spin densities with hydrogens summed into heavy atoms:
               1          2
     1  C    0.313092   0.000000
     2  C    0.148261   0.000000
     3  C   -0.046099   0.000000
     4  C   -0.046099   0.000000
     5  C   -0.031221   0.000000
     6  C   -0.031221   0.000000
     7  C   -0.014649   0.000000
     8  C   -0.292065   0.000000
 Electronic spatial extent (au):  <R**2>=            943.3143
 Charge=             -0.0000 electrons
 Dipole moment (field-independent basis, Debye):
    X=             -0.0000    Y=              0.0000    Z=             -0.7699  Tot=              0.7699
 Quadrupole moment (field-independent basis, Debye-Ang):
   XX=            -52.2342   YY=            -42.8266   ZZ=            -38.6630
   XY=              0.0000   XZ=              0.0000   YZ=             -0.0000
 Traceless Quadrupole moment (field-independent basis, Debye-Ang):
   XX=             -7.6596   YY=              1.7480   ZZ=              5.9116
   XY=              0.0000   XZ=              0.0000   YZ=             -0.0000
 Octapole moment (field-independent basis, Debye-Ang**2):
  XXX=              0.0000  YYY=             -0.0000  ZZZ=             19.7951  XYY=              0.0000
  XXY=              0.0000  XXZ=             -1.0376  XZZ=              0.0000  YZZ=             -0.0000
  YYZ=             -8.3597  XYZ=             -0.0000
 Hexadecapole moment (field-independent basis, Debye-Ang**3):
 XXXX=            -64.2587 YYYY=           -279.3002 ZZZZ=           -721.5325 XXXY=             -0.0000
 XXXZ=             -0.0000 YYYX=             -0.0000 YYYZ=              0.0000 ZZZX=             -0.0000
 ZZZY=              0.0000 XXYY=            -69.3762 XXZZ=           -197.0992 YYZZ=           -215.1162
 XXYZ=             -0.0000 YYXZ=             -0.0000 ZZXY=             -0.0000
 N-N= 2.996918825579D+02 E-N=-1.312692645085D+03  KE= 3.061748345269D+02
 Symmetry A1   KE= 2.177951059689D+02
 Symmetry A2   KE= 2.060138525878D+00
 Symmetry B1   KE= 5.989249248307D+00
 Symmetry B2   KE= 8.033034078378D+01
 Symmetry A1   SP= 0.000000000000D+00
 Symmetry A2   SP= 0.000000000000D+00
 Symmetry B1   SP= 0.000000000000D+00
 Symmetry B2   SP= 0.000000000000D+00
                          Isotropic Fermi Contact Couplings
        Atom                 a.u.       MegaHertz       Gauss      10(-4) cm-1
     1  C(13)              0.00000       0.00000       0.00000       0.00000
     2  C(13)              0.00000       0.00000       0.00000       0.00000
     3  C(13)              0.00000       0.00000       0.00000       0.00000
     4  C(13)              0.00000       0.00000       0.00000       0.00000
     5  C(13)              0.00000       0.00000       0.00000       0.00000
     6  C(13)              0.00000       0.00000       0.00000       0.00000
     7  C(13)              0.00000       0.00000       0.00000       0.00000
     8  C(13)              0.00000       0.00000       0.00000       0.00000
     9  H(1)               0.00000       0.00000       0.00000       0.00000
    10  H(1)               0.00000       0.00000       0.00000       0.00000
    11  H(1)               0.00000       0.00000       0.00000       0.00000
    12  H(1)               0.00000       0.00000       0.00000       0.00000
    13  H(1)               0.00000       0.00000       0.00000       0.00000
    14  H(1)               0.00000       0.00000       0.00000       0.00000
 --------------------------------------------------------
       Center         ----  Spin Dipole Couplings  ----
                      3XX-RR        3YY-RR        3ZZ-RR
 --------------------------------------------------------
     1   Atom        0.000000      0.000000      0.000000
     2   Atom        0.000000      0.000000      0.000000
     3   Atom        0.000000      0.000000      0.000000
     4   Atom        0.000000      0.000000      0.000000
     5   Atom        0.000000      0.000000      0.000000
     6   Atom        0.000000      0.000000      0.000000
     7   Atom        0.000000      0.000000      0.000000
     8   Atom        0.000000      0.000000      0.000000
     9   Atom        0.000000      0.000000      0.000000
    10   Atom        0.000000      0.000000      0.000000
    11   Atom        0.000000      0.000000      0.000000
    12   Atom        0.000000      0.000000      0.000000
    13   Atom        0.000000      0.000000      0.000000
    14   Atom        0.000000      0.000000      0.000000
 --------------------------------------------------------
                        XY            XZ            YZ
 --------------------------------------------------------
     1   Atom        0.000000      0.000000      0.000000
     2   Atom        0.000000      0.000000      0.000000
     3   Atom        0.000000      0.000000      0.000000
     4   Atom        0.000000      0.000000      0.000000
     5   Atom        0.000000      0.000000      0.000000
     6   Atom        0.000000      0.000000      0.000000
     7   Atom        0.000000      0.000000      0.000000
     8   Atom        0.000000      0.000000      0.000000
     9   Atom        0.000000      0.000000      0.000000
    10   Atom        0.000000      0.000000      0.000000
    11   Atom        0.000000      0.000000      0.000000
    12   Atom        0.000000      0.000000      0.000000
    13   Atom        0.000000      0.000000      0.000000
    14   Atom        0.000000      0.000000      0.000000
 --------------------------------------------------------


 ---------------------------------------------------------------------------------
              Anisotropic Spin Dipole Couplings in Principal Axis System
 ---------------------------------------------------------------------------------

       Atom             a.u.   MegaHertz   Gauss  10(-4) cm-1        Axes

              Baa     0.0000     0.000     0.000     0.000  1.0000  0.0000  0.0000
     1 C(13)  Bbb     0.0000     0.000     0.000     0.000 -0.0000  1.0000  0.0000
              Bcc     0.0000     0.000     0.000     0.000  0.0000  0.0000  1.0000
 
              Baa     0.0000     0.000     0.000     0.000  1.0000  0.0000  0.0000
     2 C(13)  Bbb     0.0000     0.000     0.000     0.000 -0.0000  1.0000  0.0000
              Bcc     0.0000     0.000     0.000     0.000  0.0000  0.0000  1.0000
 
              Baa     0.0000     0.000     0.000     0.000  1.0000  0.0000  0.0000
     3 C(13)  Bbb     0.0000     0.000     0.000     0.000 -0.0000  1.0000  0.0000
              Bcc     0.0000     0.000     0.000     0.000  0.0000  0.0000  1.0000
 
              Baa     0.0000     0.000     0.000     0.000  1.0000  0.0000  0.0000
     4 C(13)  Bbb     0.0000     0.000     0.000     0.000 -0.0000  1.0000  0.0000
              Bcc     0.0000     0.000     0.000     0.000  0.0000  0.0000  1.0000
 
              Baa     0.0000     0.000     0.000     0.000  1.0000  0.0000  0.0000
     5 C(13)  Bbb     0.0000     0.000     0.000     0.000 -0.0000  1.0000  0.0000
              Bcc     0.0000     0.000     0.000     0.000  0.0000  0.0000  1.0000
 
              Baa     0.0000     0.000     0.000     0.000  1.0000  0.0000  0.0000
     6 C(13)  Bbb     0.0000     0.000     0.000     0.000 -0.0000  1.0000  0.0000
              Bcc     0.0000     0.000     0.000     0.000  0.0000  0.0000  1.0000
 
              Baa     0.0000     0.000     0.000     0.000  1.0000  0.0000  0.0000
     7 C(13)  Bbb     0.0000     0.000     0.000     0.000 -0.0000  1.0000  0.0000
              Bcc     0.0000     0.000     0.000     0.000  0.0000  0.0000  1.0000
 
              Baa     0.0000     0.000     0.000     0.000  1.0000  0.0000  0.0000
     8 C(13)  Bbb     0.0000     0.000     0.000     0.000 -0.0000  1.0000  0.0000
              Bcc     0.0000     0.000     0.000     0.000  0.0000  0.0000  1.0000
 
              Baa     0.0000     0.000     0.000     0.000  1.0000  0.0000  0.0000
     9 H(1)   Bbb     0.0000     0.000     0.000     0.000 -0.0000  1.0000  0.0000
              Bcc     0.0000     0.000     0.000     0.000  0.0000  0.0000  1.0000
 
              Baa     0.0000     0.000     0.000     0.000  1.0000  0.0000  0.0000
    10 H(1)   Bbb     0.0000     0.000     0.000     0.000 -0.0000  1.0000  0.0000
              Bcc     0.0000     0.000     0.000     0.000  0.0000  0.0000  1.0000
 
              Baa     0.0000     0.000     0.000     0.000  1.0000  0.0000  0.0000
    11 H(1)   Bbb     0.0000     0.000     0.000     0.000 -0.0000  1.0000  0.0000
              Bcc     0.0000     0.000     0.000     0.000  0.0000  0.0000  1.0000
 
              Baa     0.0000     0.000     0.000     0.000  1.0000  0.0000  0.0000
    12 H(1)   Bbb     0.0000     0.000     0.000     0.000 -0.0000  1.0000  0.0000
              Bcc     0.0000     0.000     0.000     0.000  0.0000  0.0000  1.0000
 
              Baa     0.0000     0.000     0.000     0.000  1.0000  0.0000  0.0000
    13 H(1)   Bbb     0.0000     0.000     0.000     0.000 -0.0000  1.0000  0.0000
              Bcc     0.0000     0.000     0.000     0.000  0.0000  0.0000  1.0000
 
              Baa     0.0000     0.000     0.000     0.000  1.0000  0.0000  0.0000
    14 H(1)   Bbb     0.0000     0.000     0.000     0.000 -0.0000  1.0000  0.0000
              Bcc     0.0000     0.000     0.000     0.000  0.0000  0.0000  1.0000
 

 ---------------------------------------------------------------------------------

 1\1\GINC-GAMBA\SP\ROHF\Gen\C8H6\IRIKURA\29-Sep-2023\0\\# rohf/gen geom
 =check guess=check\\phenylacetylene, ROHF/cc-pVTZ-F12\\0,1\C,0,0.,0.,0
 .591886\C,0,0.,0.,2.017866\C,0,0.,1.207487,-0.119535\C,0,0.,-1.207487,
 -0.119535\C,0,0.,1.203129,-1.506303\C,0,0.,-1.203129,-1.506303\C,0,0.,
 0.,-2.203957\C,0,0.,0.,3.21965\H,0,0.,0.,4.280705\H,0,0.,2.140887,0.42
 5179\H,0,0.,-2.140887,0.425179\H,0,0.,2.141409,-2.044136\H,0,0.,-2.141
 409,-2.044136\H,0,0.,0.,-3.285398\\Version=ES64L-G16RevB.01\State=1-A1
 \HF=-306.497323\RMSD=3.658e-09\Dipole=0.,0.,-0.3029179\Quadrupole=-5.6
 947213,1.2995784,4.395143,0.,0.,0.\PG=C02V [C2(H1C1C1C1C1H1),SGV(C4H4)
 ]\\@


 "WOULD YOU TELL ME PLEASE, WHICH WAY I OUGHT TO WALK FROM HERE?"
 "THAT DEPENDS A GREAT DEAL ON WHERE YOU WANT TO GO," SAID THE CAT.
 "I DON'T MUCH CARE WHERE -- ", SAID ALICE.
 "THEN IT DOESN'T MATTER WHICH WAY YOU WALK," SAID THE CAT.

                                      -- LEWIS CARROLL
 Job cpu time:       0 days  0 hours 29 minutes 59.2 seconds.
 Elapsed time:       0 days  0 hours  7 minutes 30.1 seconds.
 File lengths (MBytes):  RWF=    203 Int=      0 D2E=      0 Chk=     24 Scr=      1
 Normal termination of Gaussian 16 at Fri Sep 29 00:47:24 2023.
