 Entering Gaussian System, Link 0=g16
 AtFile(1): pcseg2.gbs
            -H     0
            S   4   1.00
                  0.754732D+02           0.427821D-02
                  0.113575D+02           0.328672D-01
                  0.260081D+01           0.159578D+00
                  0.735503D+00           0.500000D+00
            S   1   1.00
                  0.231761D+00           1.0000000
            S   1   1.00
                  0.741675D-01           1.0000000
            P   1   1.00
                  0.160000D+01           1.0000000
            P   1   1.00
                  0.450000D+00           1.0000000
            D   1   1.00
                  0.125000D+01           1.0000000
            ****
            -C     0
            S   7   1.00
                  0.731999D+04           0.695369D-03
                  0.109818D+04           0.537138D-02
                  0.250014D+03           0.274734D-01
                  0.707586D+02           0.105078D+00
                  0.228595D+02           0.291262D+00
                  0.803936D+01           0.500000D+00
                  0.289309D+01           0.362224D+00
            S   2   1.00
                  0.521640D+01          -0.957844D-01
                  0.556124D+00           0.500000D+00
            S   1   1.00
                  0.228813D+00           1.0000000
            S   1   1.00
                  0.936338D-01           1.0000000
            P   4   1.00
                  0.339855D+02           0.818395D-02
                  0.772957D+01           0.586921D-01
                  0.224954D+01           0.222514D+00
                  0.767681D+00           0.500000D+00
            P   1   1.00
                  0.263283D+00           1.0000000
            P   1   1.00
                  0.848744D-01           1.0000000
            D   1   1.00
                  0.140000D+01           1.0000000
            D   1   1.00
                  0.450000D+00           1.0000000
            F   1   1.00
                  0.950000D+00           1.0000000
            ****
            -O     0
            S   7   1.00
                  0.135887D+05           0.665492D-03
                  0.203847D+04           0.514222D-02
                  0.464041D+03           0.263472D-01
                  0.131339D+03           0.101500D+00
                  0.425340D+02           0.285877D+00
                  0.150429D+02           0.500000D+00
                  0.546616D+01           0.368211D+00
            S   2   1.00
                  0.100915D+02          -0.100084D+00
                  0.110429D+01           0.500000D+00
            S   1   1.00
                  0.448082D+00           1.0000000
            S   1   1.00
                  0.175325D+00           1.0000000
            P   4   1.00
                  0.608220D+02           0.908253D-02
                  0.140332D+02           0.645878D-01
                  0.418244D+01           0.241502D+00
                  0.142490D+01           0.500000D+00
            P   1   1.00
                  0.478741D+00           1.0000000
            P   1   1.00
                  0.146257D+00           1.0000000
            D   1   1.00
                  0.220000D+01           1.0000000
            D   1   1.00
                  0.650000D+00           1.0000000
            F   1   1.00
                  0.110000D+01           1.0000000
            ****
            -N     0
            S   7   1.00
                  0.101643D+05           0.682757D-03
                  0.152481D+04           0.527488D-02
                  0.347119D+03           0.270037D-01
                  0.982389D+02           0.103673D+00
                  0.317799D+02           0.289575D+00
                  0.112240D+02           0.500000D+00
                  0.406611D+01           0.364621D+00
            S   2   1.00
                  0.747898D+01          -0.975681D-01
                  0.805040D+00           0.500000D+00
            S   1   1.00
                  0.324626D+00           1.0000000
            S   1   1.00
                  0.128132D+00           1.0000000
            P   4   1.00
                  0.482704D+02           0.829547D-02
                  0.110815D+02           0.596223D-01
                  0.326643D+01           0.227889D+00
                  0.111680D+01           0.500000D+00
            P   1   1.00
                  0.382049D+00           1.0000000
            P   1   1.00
                  0.121222D+00           1.0000000
            D   1   1.00
                  0.180000D+01           1.0000000
            D   1   1.00
                  0.550000D+00           1.0000000
            F   1   1.00
                  0.102000D+01           1.0000000
            ****
            -F     0
            S   7   1.00
                  0.174507D+05           0.655972D-03
                  0.261768D+04           0.506944D-02
                  0.595857D+03           0.259899D-01
                  0.168651D+03           0.100353D+00
                  0.546654D+02           0.284095D+00
                  0.193717D+02           0.500000D+00
                  0.706202D+01           0.370721D+00
            S   2   1.00
                  0.131197D+02          -0.101997D+00
                  0.145046D+01           0.500000D+00
            S   1   1.00
                  0.588255D+00           1.0000000
            S   1   1.00
                  0.227960D+00           1.0000000
            P   4   1.00
                  0.779407D+02           0.931135D-02
                  0.180425D+02           0.663964D-01
                  0.542342D+01           0.246386D+00
                  0.184876D+01           0.500000D+00
            P   1   1.00
                  0.617455D+00           1.0000000
            P   1   1.00
                  0.185496D+00           1.0000000
            D   1   1.00
                  0.280000D+01           1.0000000
            D   1   1.00
                  0.800000D+00           1.0000000
            F   1   1.00
                  0.120000D+01           1.0000000
            ****
            -Cl     0
            S   8   1.00
                  0.154272D+06           0.222473D-03
                  0.231232D+05           0.172590D-02
                  0.526257D+04           0.899286D-02
                  0.148995D+04           0.367724D-01
                  0.485417D+03           0.121446D+00
                  0.174634D+03           0.304148D+00
                  0.672393D+02           0.500000D+00
                  0.265780D+02           0.360252D+00
            S   3   1.00
                  0.131826D+03          -0.531330D-01
                  0.400703D+02          -0.233346D+00
                  0.789448D+01           0.500000D+00
            S   2   1.00
                  0.427711D+01           0.500000D+00
                  0.196233D+01           0.370517D+00
            S   1   1.00
                  0.520793D+00           1.0000000
            S   1   1.00
                  0.181633D+00           1.0000000
            P   7   1.00
                  0.124440D+04           0.988206D-03
                  0.295109D+03           0.829674D-02
                  0.947224D+02           0.430906D-01
                  0.352588D+02           0.148443D+00
                  0.144211D+02           0.344744D+00
                  0.610371D+01           0.500000D+00
                  0.258886D+01           0.348278D+00
            P   2   1.00
                  0.109447D+02          -0.196768D-01
                  0.104413D+01           0.500000D+00
            P   1   1.00
                  0.376184D+00           1.0000000
            P   1   1.00
                  0.120613D+00           1.0000000
            D   1   1.00
                  0.231000D+01           1.0000000
            D   1   1.00
                  0.520000D+00           1.0000000
            F   1   1.00
                  0.720000D+00           1.0000000
            ****
            -S     0
            S   8   1.00
                  0.134700D+06           0.226231D-03
                  0.201904D+05           0.175488D-02
                  0.459528D+04           0.914190D-02
                  0.130109D+04           0.373551D-01
                  0.423902D+03           0.123121D+00
                  0.152485D+03           0.306801D+00
                  0.586925D+02           0.500000D+00
                  0.231461D+02           0.354358D+00
            S   3   1.00
                  0.116327D+03          -0.491772D-01
                  0.352841D+02          -0.215962D+00
                  0.677831D+01           0.500000D+00
            S   2   1.00
                  0.360404D+01           0.500000D+00
                  0.164871D+01           0.366278D+00
            S   1   1.00
                  0.421821D+00           1.0000000
            S   1   1.00
                  0.147554D+00           1.0000000
            P   7   1.00
                  0.104863D+04           0.105273D-02
                  0.248717D+03           0.879338D-02
                  0.797887D+02           0.453358D-01
                  0.296023D+02           0.154476D+00
                  0.120627D+02           0.352366D+00
                  0.507628D+01           0.500000D+00
                  0.213375D+01           0.346429D+00
            P   2   1.00
                  0.928958D+01          -0.185932D-01
                  0.837819D+00           0.500000D+00
            P   1   1.00
                  0.301495D+00           1.0000000
            P   1   1.00
                  0.974740D-01           1.0000000
            D   1   1.00
                  0.210000D+01           1.0000000
            D   1   1.00
                  0.480000D+00           1.0000000
            F   1   1.00
                  0.660000D+00           1.0000000
            ****
            -Br     0
            S    10   1.00
                  0.233625D+07           0.532336D-04
                  0.349961D+06           0.413715D-03
                  0.796444D+05           0.217123D-02
                  0.225555D+05           0.910109D-02
                  0.735546D+04           0.323789D-01
                  0.265352D+04           0.988755D-01
                  0.103517D+04           0.248138D+00
                  0.422205D+03           0.474328D+00
                  0.180035D+03           0.500000D+00
                  0.793308D+02           0.187769D+00
            S    4   1.00
                  0.620834D+03          -0.226511D-01
                  0.190829D+03          -0.109497D+00
                  0.312505D+02           0.500000D+00
                  0.135270D+02           0.492812D+00
            S    2   1.00
                  0.216097D+02          -0.165418D+00
                  0.372566D+01           0.500000D+00
            S    1   1.00
                  0.169770D+01           1.0000000
            S    1   1.00
                  0.489332D+00           1.0000000
            S    1   1.00
                  0.175712D+00           1.0000000
            P    8   1.00
                  0.960829D+04           0.478974D-03
                  0.227618D+04           0.417853D-02
                  0.736723D+03           0.229315D-01
                  0.281579D+03           0.892653D-01
                  0.118395D+03           0.255288D+00
                  0.527481D+02           0.479074D+00
                  0.245098D+02           0.500000D+00
                  0.112009D+02           0.200944D+00
            P    4   1.00
                  0.587849D+02          -0.189674D-01
                  0.918962D+01           0.264104D+00
                  0.413895D+01           0.500000D+00
                  0.184225D+01           0.319316D+00
            P    1   1.00
                  0.713862D+00           1.0000000
            P    1   1.00
                  0.274232D+00           1.0000000
            P    1   1.00
                  0.944411D-01           1.0000000
            D    7   1.00
                  0.398470D+03           0.204066D-02
                  0.118967D+03           0.175171D-01
                  0.450197D+02           0.829708D-01
                  0.190320D+02           0.236284D+00
                  0.855686D+01           0.428468D+00
                  0.382950D+01           0.500000D+00
                  0.166291D+01           0.349360D+00
            D    1   1.00
                  0.672953D+00           1.0000000
            D    1   1.00
                  0.252000D+00           1.0000000
            F    1   1.00
                  0.530000D+00           1.0000000
            ****
            -Si     0
            S    8   1.00
                  0.996133D+05           0.235546D-03
                  0.149311D+05           0.182707D-02
                  0.339820D+04           0.951425D-02
                  0.962140D+03           0.388172D-01
                  0.313430D+03           0.127328D+00
                  0.112683D+03           0.313522D+00
                  0.433372D+02           0.500000D+00
                  0.170029D+02           0.340347D+00
            S    3   1.00
                  0.884208D+02          -0.404451D-01
                  0.266756D+02          -0.178059D+00
                  0.479640D+01           0.500000D+00
            S    2   1.00
                  0.239385D+01           0.500000D+00
                  0.108333D+01           0.338016D+00
            S    1   1.00
                  0.252420D+00           1.0000000
            S    1   1.00
                  0.891210D-01           1.0000000
            P    7   1.00
                  0.709901D+03           0.123028D-02
                  0.168426D+03           0.101366D-01
                  0.539946D+02           0.511840D-01
                  0.198646D+02           0.169967D+00
                  0.801369D+01           0.370717D+00
                  0.331870D+01           0.500000D+00
                  0.136112D+01           0.344128D+00
            P    2   1.00
                  0.622158D+01          -0.166609D-01
                  0.503049D+00           0.500000D+00
            P    1   1.00
                  0.179848D+00           1.0000000
            P    1   1.00
                  0.591912D-01           1.0000000
            D    1   1.00
                  0.168000D+01           1.0000000
            D    1   1.00
                  0.380000D+00           1.0000000
            F    1   1.00
                  0.540000D+00           1.0000000
            ****
            -P     0
            S    8   1.00
                  0.116416D+06           0.230715D-03
                  0.174500D+05           0.178960D-02
                  0.397149D+04           0.932116D-02
                  0.112447D+04           0.380591D-01
                  0.366347D+03           0.125148D+00
                  0.131757D+03           0.310022D+00
                  0.506988D+02           0.500000D+00
                  0.199436D+02           0.347528D+00
            S    3   1.00
                  0.101878D+03          -0.446755D-01
                  0.308249D+02          -0.196376D+00
                  0.573688D+01           0.500000D+00
            S    2   1.00
                  0.296868D+01           0.500000D+00
                  0.135315D+01           0.355098D+00
            S    1   1.00
                  0.332196D+00           1.0000000
            S    1   1.00
                  0.116229D+00           1.0000000
            P    7   1.00
                  0.873928D+03           0.112375D-02
                  0.207298D+03           0.933330D-02
                  0.664628D+02           0.477213D-01
                  0.245665D+02           0.160733D+00
                  0.996820D+01           0.359760D+00
                  0.416536D+01           0.500000D+00
                  0.173022D+01           0.346593D+00
            P    2   1.00
                  0.772530D+01          -0.175718D-01
                  0.657252D+00           0.500000D+00
            P    1   1.00
                  0.239903D+00           1.0000000
            P    1   1.00
                  0.800988D-01           1.0000000
            D    1   1.00
                  0.189000D+01           1.0000000
            D    1   1.00
                  0.430000D+00           1.0000000
            F    1   1.00
                  0.600000D+00           1.0000000
            ****
            
 Initial command:
 /usr/local/apps/g16_b01_avx/g16/l1.exe "/wrk/irikura/Gau-8250.inp" -scrdir="/wrk/irikura/"
 Entering Link 1 = /usr/local/apps/g16_b01_avx/g16/l1.exe PID=      8252.
  
 Copyright (c) 1988-2017, Gaussian, Inc.  All Rights Reserved.
  
 This is part of the Gaussian(R) 16 program.  It is based on
 the Gaussian(R) 09 system (copyright 2009, Gaussian, Inc.),
 the Gaussian(R) 03 system (copyright 2003, Gaussian, Inc.),
 the Gaussian(R) 98 system (copyright 1998, Gaussian, Inc.),
 the Gaussian(R) 94 system (copyright 1995, Gaussian, Inc.),
 the Gaussian 92(TM) system (copyright 1992, Gaussian, Inc.),
 the Gaussian 90(TM) system (copyright 1990, Gaussian, Inc.),
 the Gaussian 88(TM) system (copyright 1988, Gaussian, Inc.),
 the Gaussian 86(TM) system (copyright 1986, Carnegie Mellon
 University), and the Gaussian 82(TM) system (copyright 1983,
 Carnegie Mellon University). Gaussian is a federally registered
 trademark of Gaussian, Inc.
  
 This software contains proprietary and confidential information,
 including trade secrets, belonging to Gaussian, Inc.
  
 This software is provided under written license and may be
 used, copied, transmitted, or stored only in accord with that
 written license.
  
 The following legend is applicable only to US Government
 contracts under FAR:
  
                    RESTRICTED RIGHTS LEGEND
  
 Use, reproduction and disclosure by the US Government is
 subject to restrictions as set forth in subparagraphs (a)
 and (c) of the Commercial Computer Software - Restricted
 Rights clause in FAR 52.227-19.
  
 Gaussian, Inc.
 340 Quinnipiac St., Bldg. 40, Wallingford CT 06492
  
  
 ---------------------------------------------------------------
 Warning -- This program may not be used in any manner that
 competes with the business of Gaussian, Inc. or will provide
 assistance to any competitor of Gaussian, Inc.  The licensee
 of this program is prohibited from giving any competitor of
 Gaussian, Inc. access to this program.  By using this program,
 the user acknowledges that Gaussian, Inc. is engaged in the
 business of creating and licensing software in the field of
 computational chemistry and represents and warrants to the
 licensee that it is not a competitor of Gaussian, Inc. and that
 it will not use this program in any manner prohibited above.
 ---------------------------------------------------------------
  

 Cite this work as:
 Gaussian 16, Revision B.01,
 M. J. Frisch, G. W. Trucks, H. B. Schlegel, G. E. Scuseria, 
 M. A. Robb, J. R. Cheeseman, G. Scalmani, V. Barone, 
 G. A. Petersson, H. Nakatsuji, X. Li, M. Caricato, A. V. Marenich, 
 J. Bloino, B. G. Janesko, R. Gomperts, B. Mennucci, H. P. Hratchian, 
 J. V. Ortiz, A. F. Izmaylov, J. L. Sonnenberg, D. Williams-Young, 
 F. Ding, F. Lipparini, F. Egidi, J. Goings, B. Peng, A. Petrone, 
 T. Henderson, D. Ranasinghe, V. G. Zakrzewski, J. Gao, N. Rega, 
 G. Zheng, W. Liang, M. Hada, M. Ehara, K. Toyota, R. Fukuda, 
 J. Hasegawa, M. Ishida, T. Nakajima, Y. Honda, O. Kitao, H. Nakai, 
 T. Vreven, K. Throssell, J. A. Montgomery, Jr., J. E. Peralta, 
 F. Ogliaro, M. J. Bearpark, J. J. Heyd, E. N. Brothers, K. N. Kudin, 
 V. N. Staroverov, T. A. Keith, R. Kobayashi, J. Normand, 
 K. Raghavachari, A. P. Rendell, J. C. Burant, S. S. Iyengar, 
 J. Tomasi, M. Cossi, J. M. Millam, M. Klene, C. Adamo, R. Cammi, 
 J. W. Ochterski, R. L. Martin, K. Morokuma, O. Farkas, 
 J. B. Foresman, and D. J. Fox, Gaussian, Inc., Wallingford CT, 2016.
 
 ******************************************
 Gaussian 16:  ES64L-G16RevB.01 20-Dec-2017
                16-Jun-2022 
 ******************************************
 %mem=1000mw
 %nprocs=12
 Will use up to   12 processors via shared memory.
 --------------------
 # b3lyp/gen opt freq
 --------------------
 1/18=20,19=15,26=3,38=1/1,3;
 2/9=110,12=2,17=6,18=5,40=1/2;
 3/5=7,11=2,25=1,30=1,71=1,74=-5/1,2,3;
 4//1;
 5/5=2,38=5/2;
 6/7=2,8=2,9=2,10=2,28=1/1;
 7//1,2,3,16;
 1/18=20,19=15,26=3/3(2);
 2/9=110/2;
 99//99;
 2/9=110/2;
 3/5=7,6=1,11=2,25=1,30=1,71=1,74=-5,82=7/1,2,3;
 4/5=5,16=3,69=1/1;
 5/5=2,38=5/2;
 7//1,2,3,16;
 1/18=20,19=15,26=3/3(-5);
 2/9=110/2;
 6/7=2,8=2,9=2,10=2,19=2,28=1/1;
 99/9=1/99;
 ------------------------------
 phenylacetylene, B3LYP/pcseg-2
 ------------------------------
 Symbolic Z-matrix:
 Charge =  0 Multiplicity = 1
 C                     0.        0.        0.59378 
 C                     0.        0.        2.02192 
 C                     0.        1.21042  -0.11949 
 C                     0.       -1.21042  -0.11949 
 C                     0.        1.20626  -1.50966 
 C                     0.       -1.20626  -1.50966 
 C                     0.        0.       -2.20878 
 C                     0.        0.        3.2263 
 H                     0.        0.        4.29006 
 H                     0.        2.14712   0.42652 
 H                     0.       -2.14712   0.42652 
 H                     0.        2.14764  -2.04939 
 H                     0.       -2.14764  -2.04939 
 H                     0.        0.       -3.29392 
 

 GradGradGradGradGradGradGradGradGradGradGradGradGradGradGradGradGradGrad
 Berny optimization.
 Initialization pass.
                           ----------------------------
                           !    Initial Parameters    !
                           ! (Angstroms and Degrees)  !
 --------------------------                            --------------------------
 ! Name  Definition              Value          Derivative Info.                !
 --------------------------------------------------------------------------------
 ! R1    R(1,2)                  1.4281         estimate D2E/DX2                !
 ! R2    R(1,3)                  1.4049         estimate D2E/DX2                !
 ! R3    R(1,4)                  1.4049         estimate D2E/DX2                !
 ! R4    R(2,8)                  1.2044         estimate D2E/DX2                !
 ! R5    R(3,5)                  1.3902         estimate D2E/DX2                !
 ! R6    R(3,10)                 1.0842         estimate D2E/DX2                !
 ! R7    R(4,6)                  1.3902         estimate D2E/DX2                !
 ! R8    R(4,11)                 1.0842         estimate D2E/DX2                !
 ! R9    R(5,7)                  1.3942         estimate D2E/DX2                !
 ! R10   R(5,12)                 1.0851         estimate D2E/DX2                !
 ! R11   R(6,7)                  1.3942         estimate D2E/DX2                !
 ! R12   R(6,13)                 1.0851         estimate D2E/DX2                !
 ! R13   R(7,14)                 1.0851         estimate D2E/DX2                !
 ! R14   R(8,9)                  1.0638         estimate D2E/DX2                !
 ! A1    A(2,1,3)              120.5098         estimate D2E/DX2                !
 ! A2    A(2,1,4)              120.5098         estimate D2E/DX2                !
 ! A3    A(3,1,4)              118.9805         estimate D2E/DX2                !
 ! A4    A(1,3,5)              120.3384         estimate D2E/DX2                !
 ! A5    A(1,3,10)             119.2522         estimate D2E/DX2                !
 ! A6    A(5,3,10)             120.4094         estimate D2E/DX2                !
 ! A7    A(1,4,6)              120.3384         estimate D2E/DX2                !
 ! A8    A(1,4,11)             119.2522         estimate D2E/DX2                !
 ! A9    A(6,4,11)             120.4094         estimate D2E/DX2                !
 ! A10   A(3,5,7)              120.2673         estimate D2E/DX2                !
 ! A11   A(3,5,12)             119.6558         estimate D2E/DX2                !
 ! A12   A(7,5,12)             120.0769         estimate D2E/DX2                !
 ! A13   A(4,6,7)              120.2673         estimate D2E/DX2                !
 ! A14   A(4,6,13)             119.6558         estimate D2E/DX2                !
 ! A15   A(7,6,13)             120.0769         estimate D2E/DX2                !
 ! A16   A(5,7,6)              119.8083         estimate D2E/DX2                !
 ! A17   A(5,7,14)             120.0959         estimate D2E/DX2                !
 ! A18   A(6,7,14)             120.0959         estimate D2E/DX2                !
 ! A19   L(1,2,8,10,-1)        180.0            estimate D2E/DX2                !
 ! A20   L(2,8,9,10,-1)        180.0            estimate D2E/DX2                !
 ! A21   L(1,2,8,10,-2)        180.0            estimate D2E/DX2                !
 ! A22   L(2,8,9,10,-2)        180.0            estimate D2E/DX2                !
 ! D1    D(2,1,3,5)            180.0            estimate D2E/DX2                !
 ! D2    D(2,1,3,10)             0.0            estimate D2E/DX2                !
 ! D3    D(4,1,3,5)              0.0            estimate D2E/DX2                !
 ! D4    D(4,1,3,10)           180.0            estimate D2E/DX2                !
 ! D5    D(2,1,4,6)            180.0            estimate D2E/DX2                !
 ! D6    D(2,1,4,11)             0.0            estimate D2E/DX2                !
 ! D7    D(3,1,4,6)              0.0            estimate D2E/DX2                !
 ! D8    D(3,1,4,11)           180.0            estimate D2E/DX2                !
 ! D9    D(1,3,5,7)              0.0            estimate D2E/DX2                !
 ! D10   D(1,3,5,12)           180.0            estimate D2E/DX2                !
 ! D11   D(10,3,5,7)           180.0            estimate D2E/DX2                !
 ! D12   D(10,3,5,12)            0.0            estimate D2E/DX2                !
 ! D13   D(1,4,6,7)              0.0            estimate D2E/DX2                !
 ! D14   D(1,4,6,13)           180.0            estimate D2E/DX2                !
 ! D15   D(11,4,6,7)           180.0            estimate D2E/DX2                !
 ! D16   D(11,4,6,13)            0.0            estimate D2E/DX2                !
 ! D17   D(3,5,7,6)              0.0            estimate D2E/DX2                !
 ! D18   D(3,5,7,14)           180.0            estimate D2E/DX2                !
 ! D19   D(12,5,7,6)           180.0            estimate D2E/DX2                !
 ! D20   D(12,5,7,14)            0.0            estimate D2E/DX2                !
 ! D21   D(4,6,7,5)              0.0            estimate D2E/DX2                !
 ! D22   D(4,6,7,14)           180.0            estimate D2E/DX2                !
 ! D23   D(13,6,7,5)           180.0            estimate D2E/DX2                !
 ! D24   D(13,6,7,14)            0.0            estimate D2E/DX2                !
 --------------------------------------------------------------------------------
 Trust Radius=3.00D-01 FncErr=1.00D-07 GrdErr=1.00D-06 EigMax=2.50D+02 EigMin=1.00D-04
 Number of steps in this run=     70 maximum allowed number of steps=    100.
 GradGradGradGradGradGradGradGradGradGradGradGradGradGradGradGradGradGrad

                          Input orientation:                          
 ---------------------------------------------------------------------
 Center     Atomic      Atomic             Coordinates (Angstroms)
 Number     Number       Type             X           Y           Z
 ---------------------------------------------------------------------
      1          6           0        0.000000    0.000000    0.593780
      2          6           0        0.000000    0.000000    2.021919
      3          6           0        0.000000    1.210415   -0.119487
      4          6           0        0.000000   -1.210415   -0.119487
      5          6           0        0.000000    1.206256   -1.509657
      6          6           0        0.000000   -1.206256   -1.509657
      7          6           0        0.000000    0.000000   -2.208783
      8          6           0        0.000000    0.000000    3.226305
      9          1           0        0.000000    0.000000    4.290059
     10          1           0        0.000000    2.147117    0.426519
     11          1           0        0.000000   -2.147117    0.426519
     12          1           0        0.000000    2.147642   -2.049388
     13          1           0        0.000000   -2.147642   -2.049388
     14          1           0        0.000000    0.000000   -3.293921
 ---------------------------------------------------------------------
                    Distance matrix (angstroms):
                    1          2          3          4          5
     1  C    0.000000
     2  C    1.428139   0.000000
     3  C    1.404939   2.459822   0.000000
     4  C    1.404939   2.459822   2.420830   0.000000
     5  C    2.424768   3.731901   1.390176   2.787987   0.000000
     6  C    2.424768   3.731901   2.787987   1.390176   2.412512
     7  C    2.802563   4.230702   2.414594   2.414594   1.394213
     8  C    2.632525   1.204386   3.558009   3.558009   4.887166
     9  H    3.696279   2.268140   4.572658   4.572658   5.923830
    10  H    2.153622   2.674960   1.084220   3.401638   2.152672
    11  H    2.153622   2.674960   3.401638   1.084220   3.872194
    12  H    3.405687   4.603032   2.145440   3.873121   1.085135
    13  H    3.405687   4.603032   3.873121   2.145440   3.397049
    14  H    3.887701   5.315840   3.397372   3.397372   2.153753
                    6          7          8          9         10
     6  C    0.000000
     7  C    1.394213   0.000000
     8  C    4.887166   5.435088   0.000000
     9  H    5.923830   6.498842   1.063754   0.000000
    10  H    3.872194   3.399254   3.528302   4.420074   0.000000
    11  H    2.152672   3.399254   3.528302   4.420074   4.294234
    12  H    3.397049   2.153549   5.696078   6.693352   2.475907
    13  H    1.085135   2.153549   5.696078   6.693352   4.957325
    14  H    2.153753   1.085138   6.520226   7.583980   4.295554
                   11         12         13         14
    11  H    0.000000
    12  H    4.957325   0.000000
    13  H    2.475907   4.295284   0.000000
    14  H    4.295554   2.482182   2.482182   0.000000
 Stoichiometry    C8H6
 Framework group  C2V[C2(HCCCCH),SGV(C4H4)]
 Deg. of freedom    13
 Full point group                 C2V     NOp   4
 Largest Abelian subgroup         C2V     NOp   4
 Largest concise Abelian subgroup C2      NOp   2
                         Standard orientation:                         
 ---------------------------------------------------------------------
 Center     Atomic      Atomic             Coordinates (Angstroms)
 Number     Number       Type             X           Y           Z
 ---------------------------------------------------------------------
      1          6           0        0.000000   -0.000000    0.593780
      2          6           0        0.000000   -0.000000    2.021919
      3          6           0        0.000000    1.210415   -0.119487
      4          6           0       -0.000000   -1.210415   -0.119487
      5          6           0        0.000000    1.206256   -1.509657
      6          6           0       -0.000000   -1.206256   -1.509657
      7          6           0        0.000000    0.000000   -2.208783
      8          6           0        0.000000   -0.000000    3.226305
      9          1           0        0.000000   -0.000000    4.290059
     10          1           0        0.000000    2.147117    0.426519
     11          1           0       -0.000000   -2.147117    0.426519
     12          1           0        0.000000    2.147642   -2.049388
     13          1           0       -0.000000   -2.147642   -2.049388
     14          1           0        0.000000    0.000000   -3.293921
 ---------------------------------------------------------------------
 Rotational constants (GHZ):           5.6993510           1.5312233           1.2069552
 General basis read from cards:  (5D, 7F)
 There are   150 symmetry adapted cartesian basis functions of A1  symmetry.
 There are    44 symmetry adapted cartesian basis functions of A2  symmetry.
 There are    68 symmetry adapted cartesian basis functions of B1  symmetry.
 There are   108 symmetry adapted cartesian basis functions of B2  symmetry.
 There are   126 symmetry adapted basis functions of A1  symmetry.
 There are    42 symmetry adapted basis functions of A2  symmetry.
 There are    62 symmetry adapted basis functions of B1  symmetry.
 There are    94 symmetry adapted basis functions of B2  symmetry.
   324 basis functions,   516 primitive gaussians,   370 cartesian basis functions
    27 alpha electrons       27 beta electrons
       nuclear repulsion energy       298.9773261414 Hartrees.
 NAtoms=   14 NActive=   14 NUniq=   10 SFac= 1.96D+00 NAtFMM=   60 NAOKFM=F Big=F
 Integral buffers will be    131072 words long.
 Raffenetti 2 integral format.
 Two-electron integral symmetry is turned on.
 One-electron integrals computed using PRISM.
 NBasis=   324 RedAO= T EigKep=  1.90D-05  NBF=   126    42    62    94
 NBsUse=   324 1.00D-06 EigRej= -1.00D+00 NBFU=   126    42    62    94
 ExpMin= 7.42D-02 ExpMax= 7.32D+03 ExpMxC= 2.50D+02 IAcc=3 IRadAn=         5 AccDes= 0.00D+00
 Harris functional with IExCor=  402 and IRadAn=       5 diagonalized for initial guess.
 HarFok:  IExCor=  402 AccDes= 0.00D+00 IRadAn=         5 IDoV= 1 UseB2=F ITyADJ=14
 ICtDFT=  3500011 ScaDFX=  1.000000  1.000000  1.000000  1.000000
 FoFCou: FMM=F IPFlag=           0 FMFlag=      100000 FMFlg1=           0
         NFxFlg=           0 DoJE=T BraDBF=F KetDBF=T FulRan=T
         wScrn=  0.000000 ICntrl=       500 IOpCl=  0 I1Cent=   200000004 NGrid=           0
         NMat0=    1 NMatS0=      1 NMatT0=    0 NMatD0=    1 NMtDS0=    0 NMtDT0=    0
 Petite list used in FoFCou.
 Initial guess orbital symmetries:
       Occupied  (A1) (A1) (A1) (B2) (A1) (A1) (B2) (A1) (A1) (A1)
                 (B2) (A1) (A1) (B2) (A1) (A1) (B2) (A1) (A1) (B2)
                 (A1) (B1) (B2) (B1) (B2) (A2) (B1)
       Virtual   (B1) (A2) (B2) (B1) (A1) (B2) (A1) (A1) (B1) (A1)
                 (B2) (A1) (A1) (A1) (B1) (B2) (B2) (B1) (A1) (B2)
                 (A1) (A2) (A1) (B1) (A1) (B2) (B2) (A2) (A1) (A1)
                 (B1) (B2) (A1) (B1) (B2) (A1) (B2) (B1) (A1) (A1)
                 (B2) (A1) (B2) (A1) (B2) (A1) (A1) (B2) (B2) (A1)
                 (B2) (A1) (A1) (B1) (B2) (A1) (A2) (A1) (A2) (B1)
                 (A1) (A2) (A1) (B1) (A2) (B2) (A1) (B2) (B1) (A1)
                 (B2) (A1) (A1) (B1) (A1) (B2) (A2) (B2) (B1) (A1)
                 (B1) (B2) (A1) (B2) (A2) (A1) (B1) (B1) (A1) (A2)
                 (A2) (B2) (B1) (B2) (A1) (B1) (B1) (B2) (A1) (B2)
                 (B2) (A2) (A1) (B1) (A1) (B2) (B1) (A1) (A2) (A1)
                 (B1) (B2) (A1) (A2) (B1) (B2) (A1) (A1) (B2) (A1)
                 (A1) (B2) (A1) (B2) (A1) (A2) (B2) (A1) (B1) (B2)
                 (A1) (B2) (A1) (A1) (B2) (B2) (B1) (A1) (A1) (B2)
                 (A1) (B2) (A1) (A1) (B2) (A2) (B2) (B1) (A2) (A1)
                 (A1) (B1) (A2) (A1) (B1) (B2) (B2) (B1) (A2) (B1)
                 (B2) (A1) (B1) (A1) (A1) (A2) (B2) (A1) (B2) (A1)
                 (B2) (B1) (B1) (B2) (A2) (A1) (A1) (B2) (B1) (A1)
                 (A1) (B2) (B2) (A2) (A1) (B1) (A2) (A1) (B1) (B2)
                 (A2) (B1) (A2) (A1) (A1) (B1) (B2) (A2) (A1) (A2)
                 (B2) (A1) (B1) (B2) (A2) (A1) (B2) (B1) (A1) (A1)
                 (B2) (A2) (A2) (A1) (B2) (B1) (A1) (A2) (B1) (B1)
                 (A1) (A2) (B2) (A1) (B1) (A2) (B2) (B1) (A1) (B1)
                 (A2) (B2) (B1) (A2) (B2) (A1) (B2) (A1) (A2) (B1)
                 (A1) (B1) (A2) (B1) (A1) (B2) (B1) (A2) (A1) (B2)
                 (A1) (B2) (B1) (A1) (B2) (A1) (B2) (B2) (A1) (B2)
                 (B1) (A1) (A2) (A1) (B2) (A2) (B1) (A1) (B2) (A1)
                 (B1) (A1) (B2) (A2) (B2) (A1) (B2) (A1) (B2) (A1)
                 (B1) (B2) (B1) (A1) (B2) (B2) (A1) (A1) (B2) (A1)
                 (A1) (B2) (A1) (B2) (A1) (A1) (A1)
 The electronic state of the initial guess is 1-A1.
 Requested convergence on RMS density matrix=1.00D-08 within 128 cycles.
 Requested convergence on MAX density matrix=1.00D-06.
 Requested convergence on             energy=1.00D-06.
 No special actions if energy rises.
 Integral accuracy reduced to 1.0D-05 until final iterations.
 Initial convergence to 1.0D-05 achieved.  Increase integral accuracy.
 SCF Done:  E(RB3LYP) =  -308.514484038     A.U. after   14 cycles
            NFock= 14  Conv=0.56D-08     -V/T= 2.0041

 **********************************************************************

            Population analysis using the SCF Density.

 **********************************************************************

 Orbital symmetries:
       Occupied  (A1) (B2) (A1) (A1) (B2) (A1) (A1) (A1) (A1) (A1)
                 (B2) (A1) (A1) (B2) (A1) (A1) (A1) (B2) (A1) (B2)
                 (B1) (A1) (B2) (B1) (B2) (A2) (B1)
       Virtual   (B1) (A2) (A1) (B2) (A1) (B2) (A1) (B1) (B2) (A1)
                 (A1) (A1) (B1) (B2) (B1) (A1) (B1) (B2) (A2) (A1)
                 (B2) (A1) (B1) (A1) (B2) (A1) (A2) (A1) (B1) (B2)
                 (A1) (B2) (B1) (A1) (B2) (A1) (B1) (B2) (A1) (A1)
                 (B2) (A1) (B2) (A1) (B2) (A1) (A1) (B2) (A1) (B2)
                 (A1) (B2) (B2) (B1) (A1) (A1) (A1) (A2) (A2) (B1)
                 (A1) (A2) (B1) (A1) (A2) (B2) (B2) (A1) (B1) (A1)
                 (B2) (A1) (A1) (B1) (A1) (B2) (B2) (A2) (B1) (A1)
                 (B2) (B1) (A1) (A2) (B2) (A1) (A1) (B1) (A2) (B1)
                 (A2) (B2) (B1) (A1) (B2) (B1) (B2) (B1) (A1) (B2)
                 (B2) (A2) (A1) (B1) (A1) (B2) (B1) (A1) (A2) (A1)
                 (B1) (B2) (A1) (A2) (B1) (A1) (B2) (A1) (B2) (A1)
                 (A1) (B2) (A1) (A1) (B2) (A2) (B2) (B1) (A1) (B2)
                 (A1) (B2) (A1) (A1) (B2) (B1) (B2) (A1) (A1) (B2)
                 (A1) (B2) (A1) (A1) (B2) (A2) (B2) (B1) (A2) (A1)
                 (A1) (B1) (A2) (B1) (A1) (B2) (B2) (B1) (A2) (B1)
                 (B2) (B1) (A1) (A1) (A1) (A2) (B2) (A1) (B2) (B1)
                 (A1) (B2) (B1) (A2) (B2) (A1) (A1) (B2) (A1) (B1)
                 (A1) (B2) (B2) (A2) (B1) (A1) (A2) (B2) (A2) (A1)
                 (B1) (B1) (A2) (A1) (B1) (A1) (B2) (A2) (A1) (B2)
                 (A2) (B1) (A1) (B2) (A2) (B2) (A1) (A1) (B1) (A1)
                 (B2) (A2) (A1) (A2) (B2) (A1) (B1) (A2) (B1) (B1)
                 (A1) (A2) (B2) (A1) (B1) (A2) (A1) (B1) (B2) (A2)
                 (B1) (B2) (B1) (A2) (B2) (B2) (A1) (A1) (B1) (A2)
                 (A1) (B1) (A2) (A1) (B1) (B2) (B1) (A2) (A1) (B2)
                 (A1) (B2) (B1) (B2) (A1) (A1) (B2) (A1) (B2) (B2)
                 (B1) (A2) (A1) (A1) (B2) (A2) (B1) (A1) (B2) (A1)
                 (B1) (A2) (B2) (A1) (B2) (A1) (B2) (A1) (B2) (A1)
                 (B1) (B2) (B1) (A1) (B2) (B2) (A1) (A1) (A1) (B2)
                 (A1) (B2) (A1) (B2) (A1) (A1) (A1)
 The electronic state is 1-A1.
 Alpha  occ. eigenvalues --  -10.20890 -10.18893 -10.18892 -10.18719 -10.18643
 Alpha  occ. eigenvalues --  -10.18621 -10.18131 -10.17295  -0.87342  -0.79147
 Alpha  occ. eigenvalues --   -0.75978  -0.73455  -0.63389  -0.61889  -0.55786
 Alpha  occ. eigenvalues --   -0.52321  -0.48622  -0.46977  -0.44564  -0.43501
 Alpha  occ. eigenvalues --   -0.39307  -0.37061  -0.36146  -0.32108  -0.28793
 Alpha  occ. eigenvalues --   -0.26978  -0.24582
 Alpha virt. eigenvalues --   -0.04687  -0.02486   0.01366   0.02940   0.03791
 Alpha virt. eigenvalues --    0.04000   0.05122   0.06343   0.07410   0.07619
 Alpha virt. eigenvalues --    0.11675   0.12393   0.13019   0.15859   0.16031
 Alpha virt. eigenvalues --    0.17306   0.18227   0.19208   0.19540   0.20083
 Alpha virt. eigenvalues --    0.20808   0.24598   0.24694   0.25183   0.26782
 Alpha virt. eigenvalues --    0.26782   0.27045   0.27911   0.30139   0.30322
 Alpha virt. eigenvalues --    0.30879   0.32246   0.32624   0.33141   0.33858
 Alpha virt. eigenvalues --    0.34813   0.35682   0.36200   0.37118   0.41204
 Alpha virt. eigenvalues --    0.41839   0.42750   0.44748   0.45715   0.47727
 Alpha virt. eigenvalues --    0.49084   0.52234   0.52886   0.55455   0.59748
 Alpha virt. eigenvalues --    0.62106   0.62769   0.64800   0.64924   0.67681
 Alpha virt. eigenvalues --    0.68517   0.72653   0.75188   0.75688   0.77406
 Alpha virt. eigenvalues --    0.80679   0.82057   0.85167   0.87353   0.88154
 Alpha virt. eigenvalues --    0.89099   0.89412   0.91440   0.95451   0.98132
 Alpha virt. eigenvalues --    0.98760   1.00070   1.04258   1.05448   1.06902
 Alpha virt. eigenvalues --    1.07175   1.08383   1.09760   1.12536   1.13985
 Alpha virt. eigenvalues --    1.15373   1.16836   1.17727   1.21022   1.21231
 Alpha virt. eigenvalues --    1.21556   1.22234   1.23865   1.26110   1.26629
 Alpha virt. eigenvalues --    1.28973   1.30303   1.31188   1.33113   1.34342
 Alpha virt. eigenvalues --    1.34519   1.38470   1.39549   1.39994   1.41431
 Alpha virt. eigenvalues --    1.42681   1.44787   1.47226   1.50345   1.52535
 Alpha virt. eigenvalues --    1.53223   1.57353   1.59029   1.60212   1.61200
 Alpha virt. eigenvalues --    1.61737   1.62128   1.65077   1.65997   1.66946
 Alpha virt. eigenvalues --    1.68508   1.69031   1.73169   1.75920   1.77653
 Alpha virt. eigenvalues --    1.85822   1.87844   1.89228   1.92539   1.94422
 Alpha virt. eigenvalues --    1.94733   1.97501   1.98183   1.98661   1.99839
 Alpha virt. eigenvalues --    2.03005   2.07606   2.17444   2.18166   2.18416
 Alpha virt. eigenvalues --    2.22930   2.23409   2.25342   2.33345   2.35358
 Alpha virt. eigenvalues --    2.50610   2.54076   2.57242   2.67250   2.68361
 Alpha virt. eigenvalues --    2.80220   2.80961   2.92650   2.99959   3.00275
 Alpha virt. eigenvalues --    3.02993   3.15058   3.17096   3.17701   3.17896
 Alpha virt. eigenvalues --    3.19926   3.22266   3.22966   3.23820   3.28656
 Alpha virt. eigenvalues --    3.31126   3.34171   3.35581   3.35809   3.37582
 Alpha virt. eigenvalues --    3.37621   3.45114   3.49880   3.53924   3.57066
 Alpha virt. eigenvalues --    3.57740   3.58103   3.60227   3.62123   3.62657
 Alpha virt. eigenvalues --    3.66226   3.68793   3.73844   3.77857   3.80733
 Alpha virt. eigenvalues --    3.81366   3.82938   3.85955   3.86389   3.88536
 Alpha virt. eigenvalues --    3.88963   3.94362   3.95645   3.96282   3.96726
 Alpha virt. eigenvalues --    3.96867   3.97478   3.98724   4.02680   4.04488
 Alpha virt. eigenvalues --    4.05138   4.05742   4.05977   4.07632   4.11315
 Alpha virt. eigenvalues --    4.11983   4.12921   4.13793   4.17740   4.19107
 Alpha virt. eigenvalues --    4.20215   4.20352   4.20973   4.22638   4.24500
 Alpha virt. eigenvalues --    4.25416   4.29170   4.29608   4.31186   4.32917
 Alpha virt. eigenvalues --    4.33478   4.34084   4.35088   4.36566   4.40535
 Alpha virt. eigenvalues --    4.40573   4.41827   4.43126   4.44299   4.45697
 Alpha virt. eigenvalues --    4.48095   4.48306   4.48809   4.48852   4.52176
 Alpha virt. eigenvalues --    4.52510   4.58496   4.59562   4.61089   4.64001
 Alpha virt. eigenvalues --    4.65710   4.66114   4.67921   4.68519   4.70309
 Alpha virt. eigenvalues --    4.73408   4.75289   4.77022   4.77414   4.77955
 Alpha virt. eigenvalues --    4.80288   4.87205   4.87674   4.93944   4.94893
 Alpha virt. eigenvalues --    4.99984   5.02775   5.03759   5.10393   5.11162
 Alpha virt. eigenvalues --    5.13140   5.13217   5.16078   5.16854   5.23616
 Alpha virt. eigenvalues --    5.24382   5.31208   5.31417   5.34331   5.36503
 Alpha virt. eigenvalues --    5.36735   5.37200   5.40740   5.49045   5.49958
 Alpha virt. eigenvalues --    5.51119   5.55255   5.56678   5.57550   5.61647
 Alpha virt. eigenvalues --    5.69464   5.70309   5.72402   5.73316   5.76836
 Alpha virt. eigenvalues --    5.82071   5.91578   5.93668   5.95204   6.04112
 Alpha virt. eigenvalues --    6.07102   6.20672   6.23981   6.35380   6.36915
 Alpha virt. eigenvalues --    6.46454   6.69285   6.87511   7.09703   7.15468
 Alpha virt. eigenvalues --    9.05822  11.50179
          Condensed to atoms (all electrons):
               1          2          3          4          5          6
     1  C    4.679804   0.353142   0.494370   0.494370  -0.034176  -0.034176
     2  C    0.353142   5.129701  -0.089357  -0.089357   0.008369   0.008369
     3  C    0.494370  -0.089357   5.011421  -0.086346   0.445253  -0.054362
     4  C    0.494370  -0.089357  -0.086346   5.011421  -0.054362   0.445253
     5  C   -0.034176   0.008369   0.445253  -0.054362   4.879771  -0.035001
     6  C   -0.034176   0.008369  -0.054362   0.445253  -0.035001   4.879771
     7  C   -0.056109  -0.000659  -0.048129  -0.048129   0.458623   0.458623
     8  C   -0.095976   0.806492  -0.011648  -0.011648  -0.000352  -0.000352
     9  H   -0.000070  -0.079179  -0.000365  -0.000365   0.000013   0.000013
    10  H   -0.044903  -0.005958   0.461411   0.010643  -0.052753  -0.003733
    11  H   -0.044903  -0.005958   0.010643   0.461411  -0.003733  -0.052753
    12  H    0.011263  -0.000488  -0.049152  -0.004502   0.457673   0.014914
    13  H    0.011263  -0.000488  -0.004502  -0.049152   0.014914   0.457673
    14  H   -0.005577   0.000081   0.015089   0.015089  -0.055041  -0.055041
               7          8          9         10         11         12
     1  C   -0.056109  -0.095976  -0.000070  -0.044903  -0.044903   0.011263
     2  C   -0.000659   0.806492  -0.079179  -0.005958  -0.005958  -0.000488
     3  C   -0.048129  -0.011648  -0.000365   0.461411   0.010643  -0.049152
     4  C   -0.048129  -0.011648  -0.000365   0.010643   0.461411  -0.004502
     5  C    0.458623  -0.000352   0.000013  -0.052753  -0.003733   0.457673
     6  C    0.458623  -0.000352   0.000013  -0.003733  -0.052753   0.014914
     7  C    4.855471  -0.001042  -0.000029   0.012425   0.012425  -0.054198
     8  C   -0.001042   5.043824   0.485716  -0.004620  -0.004620   0.000092
     9  H   -0.000029   0.485716   0.537671  -0.000241  -0.000241   0.000001
    10  H    0.012425  -0.004620  -0.000241   0.598599  -0.000274  -0.010200
    11  H    0.012425  -0.004620  -0.000241  -0.000274   0.598599   0.000092
    12  H   -0.054198   0.000092   0.000001  -0.010200   0.000092   0.622938
    13  H   -0.054198   0.000092   0.000001   0.000092  -0.010200  -0.000058
    14  H    0.456371  -0.000003   0.000000  -0.000037  -0.000037  -0.010433
              13         14
     1  C    0.011263  -0.005577
     2  C   -0.000488   0.000081
     3  C   -0.004502   0.015089
     4  C   -0.049152   0.015089
     5  C    0.014914  -0.055041
     6  C    0.457673  -0.055041
     7  C   -0.054198   0.456371
     8  C    0.000092  -0.000003
     9  H    0.000001   0.000000
    10  H    0.000092  -0.000037
    11  H   -0.010200  -0.000037
    12  H   -0.000058  -0.010433
    13  H    0.622938  -0.010433
    14  H   -0.010433   0.622771
 Mulliken charges:
               1
     1  C    0.271677
     2  C   -0.034712
     3  C   -0.094326
     4  C   -0.094326
     5  C   -0.029200
     6  C   -0.029200
     7  C    0.008557
     8  C   -0.205956
     9  H    0.057072
    10  H    0.039548
    11  H    0.039548
    12  H    0.022059
    13  H    0.022059
    14  H    0.027200
 Sum of Mulliken charges =  -0.00000
 Mulliken charges with hydrogens summed into heavy atoms:
               1
     1  C    0.271677
     2  C   -0.034712
     3  C   -0.054778
     4  C   -0.054778
     5  C   -0.007141
     6  C   -0.007141
     7  C    0.035757
     8  C   -0.148884
 Electronic spatial extent (au):  <R**2>=            946.9163
 Charge=             -0.0000 electrons
 Dipole moment (field-independent basis, Debye):
    X=              0.0000    Y=              0.0000    Z=             -0.7307  Tot=              0.7307
 Quadrupole moment (field-independent basis, Debye-Ang):
   XX=            -51.2497   YY=            -42.9070   ZZ=            -39.2153
   XY=              0.0000   XZ=             -0.0000   YZ=             -0.0000
 Traceless Quadrupole moment (field-independent basis, Debye-Ang):
   XX=             -6.7924   YY=              1.5504   ZZ=              5.2420
   XY=              0.0000   XZ=             -0.0000   YZ=             -0.0000
 Octapole moment (field-independent basis, Debye-Ang**2):
  XXX=              0.0000  YYY=              0.0000  ZZZ=             18.0014  XYY=              0.0000
  XXY=              0.0000  XXZ=             -1.0955  XZZ=              0.0000  YZZ=             -0.0000
  YYZ=             -7.7711  XYZ=             -0.0000
 Hexadecapole moment (field-independent basis, Debye-Ang**3):
 XXXX=            -62.7320 YYYY=           -285.5211 ZZZZ=           -748.8624 XXXY=             -0.0000
 XXXZ=             -0.0000 YYYX=             -0.0000 YYYZ=             -0.0000 ZZZX=             -0.0000
 ZZZY=              0.0000 XXYY=            -69.1321 XXZZ=           -195.3597 YYZZ=           -216.5127
 XXYZ=             -0.0000 YYXZ=             -0.0000 ZZXY=             -0.0000
 N-N= 2.989773261414D+02 E-N=-1.313501691391D+03  KE= 3.072416000554D+02
 Symmetry A1   KE= 2.179085884374D+02
 Symmetry A2   KE= 2.248334655403D+00
 Symmetry B1   KE= 6.449206482089D+00
 Symmetry B2   KE= 8.063547048054D+01
 Calling FoFJK, ICntrl=      2127 FMM=F ISym2X=1 I1Cent= 0 IOpClX= 0 NMat=1 NMatS=1 NMatT=0.
 ***** Axes restored to original set *****
 -------------------------------------------------------------------
 Center     Atomic                   Forces (Hartrees/Bohr)
 Number     Number              X              Y              Z
 -------------------------------------------------------------------
      1        6          -0.000000000   -0.000000000   -0.001319040
      2        6          -0.000000000   -0.000000000    0.003362868
      3        6           0.000000000   -0.000341212   -0.000429113
      4        6           0.000000000    0.000341212   -0.000429113
      5        6           0.000000000   -0.000666650    0.000383272
      6        6           0.000000000    0.000666650    0.000383272
      7        6          -0.000000000    0.000000000    0.000403955
      8        6          -0.000000000    0.000000000   -0.003106771
      9        1          -0.000000000   -0.000000000   -0.001940892
     10        1           0.000000000   -0.002074214   -0.001110551
     11        1           0.000000000    0.002074214   -0.001110551
     12        1           0.000000000   -0.002106929    0.001219334
     13        1           0.000000000    0.002106929    0.001219334
     14        1          -0.000000000   -0.000000000    0.002473997
 -------------------------------------------------------------------
 Cartesian Forces:  Max     0.003362868 RMS     0.001169642

 GradGradGradGradGradGradGradGradGradGradGradGradGradGradGradGradGradGrad
 Berny optimization.
 FormGI is forming the generalized inverse of G from B-inverse, IUseBI=4.
 Internal  Forces:  Max     0.005047663 RMS     0.001386036
 Search for a local minimum.
 Step number   1 out of a maximum of   70
 All quantities printed in internal units (Hartrees-Bohrs-Radians)
 Mixed Optimization -- RFO/linear search
 Second derivative matrix not updated -- first step.
 ITU=  0
     Eigenvalues ---    0.00582   0.00582   0.02023   0.02060   0.02111
     Eigenvalues ---    0.02128   0.02165   0.02167   0.02181   0.02193
     Eigenvalues ---    0.02197   0.04676   0.04676   0.16000   0.16000
     Eigenvalues ---    0.16000   0.16000   0.16000   0.22000   0.22000
     Eigenvalues ---    0.23473   0.25000   0.35381   0.35381   0.35381
     Eigenvalues ---    0.35489   0.35489   0.38031   0.41258   0.41566
     Eigenvalues ---    0.42121   0.45396   0.45857   0.46762   0.47288
     Eigenvalues ---    1.02650
 RFO step:  Lambda=-2.40762983D-04 EMin= 5.82014386D-03
 Linear search not attempted -- first point.
 Iteration  1 RMS(Cart)=  0.00555572 RMS(Int)=  0.00000054
 Iteration  2 RMS(Cart)=  0.00000066 RMS(Int)=  0.00000000
 ClnCor:  largest displacement from symmetrization is 5.55D-10 for atom     8.
 Variable       Old X    -DE/DX   Delta X   Delta X   Delta X     New X
                                 (Linear)    (Quad)   (Total)
    R1        2.69879  -0.00168   0.00000  -0.00408  -0.00408   2.69471
    R2        2.65495  -0.00294   0.00000  -0.00654  -0.00654   2.64841
    R3        2.65495  -0.00294   0.00000  -0.00654  -0.00654   2.64841
    R4        2.27596  -0.00505   0.00000  -0.00492  -0.00492   2.27104
    R5        2.62705  -0.00304   0.00000  -0.00643  -0.00643   2.62062
    R6        2.04888  -0.00235   0.00000  -0.00662  -0.00662   2.04226
    R7        2.62705  -0.00304   0.00000  -0.00643  -0.00643   2.62062
    R8        2.04888  -0.00235   0.00000  -0.00662  -0.00662   2.04226
    R9        2.63468  -0.00302   0.00000  -0.00651  -0.00651   2.62817
   R10        2.05061  -0.00243   0.00000  -0.00688  -0.00688   2.04373
   R11        2.63468  -0.00302   0.00000  -0.00651  -0.00651   2.62817
   R12        2.05061  -0.00243   0.00000  -0.00688  -0.00688   2.04373
   R13        2.05061  -0.00247   0.00000  -0.00699  -0.00699   2.04363
   R14        2.01020  -0.00194   0.00000  -0.00510  -0.00510   2.00510
    A1        2.10329  -0.00001   0.00000  -0.00007  -0.00007   2.10322
    A2        2.10329  -0.00001   0.00000  -0.00007  -0.00007   2.10322
    A3        2.07660   0.00001   0.00000   0.00015   0.00015   2.07675
    A4        2.10030  -0.00006   0.00000  -0.00022  -0.00022   2.10008
    A5        2.08134  -0.00006   0.00000  -0.00043  -0.00043   2.08091
    A6        2.10154   0.00012   0.00000   0.00066   0.00066   2.10220
    A7        2.10030  -0.00006   0.00000  -0.00022  -0.00022   2.10008
    A8        2.08134  -0.00006   0.00000  -0.00043  -0.00043   2.08091
    A9        2.10154   0.00012   0.00000   0.00066   0.00066   2.10220
   A10        2.09906   0.00009   0.00000   0.00036   0.00036   2.09942
   A11        2.08839  -0.00006   0.00000  -0.00024  -0.00024   2.08814
   A12        2.09574  -0.00004   0.00000  -0.00012  -0.00012   2.09562
   A13        2.09906   0.00009   0.00000   0.00036   0.00036   2.09942
   A14        2.08839  -0.00006   0.00000  -0.00024  -0.00024   2.08814
   A15        2.09574  -0.00004   0.00000  -0.00012  -0.00012   2.09562
   A16        2.09105  -0.00007   0.00000  -0.00042  -0.00042   2.09062
   A17        2.09607   0.00004   0.00000   0.00021   0.00021   2.09628
   A18        2.09607   0.00004   0.00000   0.00021   0.00021   2.09628
   A19        3.14159   0.00000   0.00000   0.00000   0.00000   3.14159
   A20        3.14159   0.00000   0.00000   0.00000  -0.00000   3.14159
   A21        3.14159   0.00000   0.00000   0.00000   0.00000   3.14159
   A22        3.14159   0.00000   0.00000   0.00000   0.00000   3.14159
    D1        3.14159  -0.00000   0.00000  -0.00000   0.00000   3.14159
    D2        0.00000  -0.00000   0.00000  -0.00000  -0.00000   0.00000
    D3       -0.00000   0.00000   0.00000   0.00000   0.00000   0.00000
    D4        3.14159   0.00000   0.00000   0.00000   0.00000   3.14159
    D5        3.14159   0.00000   0.00000   0.00000   0.00000   3.14159
    D6       -0.00000  -0.00000   0.00000  -0.00000   0.00000   0.00000
    D7        0.00000  -0.00000   0.00000  -0.00000   0.00000   0.00000
    D8        3.14159  -0.00000   0.00000  -0.00000   0.00000   3.14159
    D9       -0.00000  -0.00000   0.00000  -0.00000   0.00000   0.00000
   D10        3.14159  -0.00000   0.00000  -0.00000   0.00000   3.14159
   D11        3.14159  -0.00000   0.00000  -0.00000   0.00000   3.14159
   D12        0.00000  -0.00000   0.00000  -0.00000  -0.00000   0.00000
   D13       -0.00000  -0.00000   0.00000  -0.00000   0.00000   0.00000
   D14        3.14159  -0.00000   0.00000  -0.00000   0.00000   3.14159
   D15        3.14159   0.00000   0.00000   0.00000   0.00000   3.14159
   D16        0.00000   0.00000   0.00000   0.00000  -0.00000   0.00000
   D17        0.00000  -0.00000   0.00000  -0.00000   0.00000   0.00000
   D18        3.14159   0.00000   0.00000   0.00000   0.00000   3.14159
   D19        3.14159  -0.00000   0.00000  -0.00000   0.00000   3.14159
   D20       -0.00000  -0.00000   0.00000  -0.00000   0.00000   0.00000
   D21       -0.00000   0.00000   0.00000   0.00000   0.00000   0.00000
   D22        3.14159   0.00000   0.00000   0.00000   0.00000   3.14159
   D23        3.14159   0.00000   0.00000   0.00000   0.00000   3.14159
   D24       -0.00000   0.00000   0.00000   0.00000   0.00000   0.00000
         Item               Value     Threshold  Converged?
 Maximum Force            0.005048     0.000450     NO 
 RMS     Force            0.001386     0.000300     NO 
 Maximum Displacement     0.018463     0.001800     NO 
 RMS     Displacement     0.005556     0.001200     NO 
 Predicted change in Energy=-1.204481D-04
 GradGradGradGradGradGradGradGradGradGradGradGradGradGradGradGradGradGrad

                          Input orientation:                          
 ---------------------------------------------------------------------
 Center     Atomic      Atomic             Coordinates (Angstroms)
 Number     Number       Type             X           Y           Z
 ---------------------------------------------------------------------
      1          6           0       -0.000000    0.000000    0.591470
      2          6           0       -0.000000    0.000000    2.017449
      3          6           0        0.000000    1.207487   -0.119951
      4          6           0       -0.000000   -1.207487   -0.119951
      5          6           0        0.000000    1.203129   -1.506719
      6          6           0       -0.000000   -1.203129   -1.506719
      7          6           0        0.000000    0.000000   -2.204374
      8          6           0       -0.000000    0.000000    3.219234
      9          1           0       -0.000000    0.000000    4.280289
     10          1           0        0.000000    2.140887    0.424762
     11          1           0       -0.000000   -2.140887    0.424762
     12          1           0        0.000000    2.141409   -2.044553
     13          1           0       -0.000000   -2.141409   -2.044553
     14          1           0        0.000000    0.000000   -3.285814
 ---------------------------------------------------------------------
                    Distance matrix (angstroms):
                    1          2          3          4          5
     1  C    0.000000
     2  C    1.425979   0.000000
     3  C    1.401480   2.454894   0.000000
     4  C    1.401480   2.454894   2.414974   0.000000
     5  C    2.418660   3.723880   1.386775   2.781042   0.000000
     6  C    2.418660   3.723880   2.781042   1.386775   2.406258
     7  C    2.795844   4.221823   2.408909   2.408909   1.390770
     8  C    2.627764   1.201784   3.550800   3.550800   4.876695
     9  H    3.688819   2.262840   4.562909   4.562909   5.910751
    10  H    2.147368   2.668342   1.080717   3.392392   2.147093
    11  H    2.147368   2.668342   3.392392   1.080717   3.861744
    12  H    3.396211   4.591894   2.139229   3.862537   1.081496
    13  H    3.396211   4.591894   3.862537   2.139229   3.387507
    14  H    3.877284   5.303263   3.388320   3.388320   2.147719
                    6          7          8          9         10
     6  C    0.000000
     7  C    1.390770   0.000000
     8  C    4.876695   5.423607   0.000000
     9  H    5.910751   6.484662   1.061055   0.000000
    10  H    3.861744   3.390539   3.520294   4.410043   0.000000
    11  H    2.147093   3.390539   3.520294   4.410043   4.281774
    12  H    3.387507   2.147365   5.682700   6.677518   2.469315
    13  H    1.081496   2.147365   5.682700   6.677518   4.943235
    14  H    2.147719   1.081440   6.505048   7.566103   4.283897
                   11         12         13         14
    11  H    0.000000
    12  H    4.943235   0.000000
    13  H    2.469315   4.282818   0.000000
    14  H    4.283897   2.475149   2.475149   0.000000
 Stoichiometry    C8H6
 Framework group  C2V[C2(HCCCCH),SGV(C4H4)]
 Deg. of freedom    13
 Full point group                 C2V     NOp   4
 Largest Abelian subgroup         C2V     NOp   4
 Largest concise Abelian subgroup C2      NOp   2
                         Standard orientation:                         
 ---------------------------------------------------------------------
 Center     Atomic      Atomic             Coordinates (Angstroms)
 Number     Number       Type             X           Y           Z
 ---------------------------------------------------------------------
      1          6           0        0.000000    0.000000    0.591886
      2          6           0        0.000000    0.000000    2.017866
      3          6           0       -0.000000    1.207487   -0.119535
      4          6           0       -0.000000   -1.207487   -0.119535
      5          6           0       -0.000000    1.203129   -1.506303
      6          6           0       -0.000000   -1.203129   -1.506303
      7          6           0        0.000000   -0.000000   -2.203957
      8          6           0        0.000000    0.000000    3.219650
      9          1           0        0.000000    0.000000    4.280705
     10          1           0       -0.000000    2.140887    0.425179
     11          1           0       -0.000000   -2.140887    0.425179
     12          1           0       -0.000000    2.141409   -2.044136
     13          1           0       -0.000000   -2.141409   -2.044136
     14          1           0        0.000000   -0.000000   -3.285398
 ---------------------------------------------------------------------
 Rotational constants (GHZ):           5.7289703           1.5378346           1.2123910
 Basis read from rwf:  (5D, 7F)
 There are   150 symmetry adapted cartesian basis functions of A1  symmetry.
 There are    44 symmetry adapted cartesian basis functions of A2  symmetry.
 There are    68 symmetry adapted cartesian basis functions of B1  symmetry.
 There are   108 symmetry adapted cartesian basis functions of B2  symmetry.
 There are   126 symmetry adapted basis functions of A1  symmetry.
 There are    42 symmetry adapted basis functions of A2  symmetry.
 There are    62 symmetry adapted basis functions of B1  symmetry.
 There are    94 symmetry adapted basis functions of B2  symmetry.
   324 basis functions,   516 primitive gaussians,   370 cartesian basis functions
    27 alpha electrons       27 beta electrons
       nuclear repulsion energy       299.6918733424 Hartrees.
 NAtoms=   14 NActive=   14 NUniq=   10 SFac= 1.96D+00 NAtFMM=   60 NAOKFM=F Big=F
 Integral buffers will be    131072 words long.
 Raffenetti 2 integral format.
 Two-electron integral symmetry is turned on.
 One-electron integrals computed using PRISM.
 NBasis=   324 RedAO= T EigKep=  1.86D-05  NBF=   126    42    62    94
 NBsUse=   324 1.00D-06 EigRej= -1.00D+00 NBFU=   126    42    62    94
 Initial guess from the checkpoint file:  "/wrk/irikura/Gau-8252.chk"
 B after Tr=     0.000000   -0.000000   -0.000000
         Rot=    1.000000   -0.000000    0.000000   -0.000000 Ang=   0.00 deg.
 Initial guess orbital symmetries:
       Occupied  (A1) (B2) (A1) (A1) (B2) (A1) (A1) (A1) (A1) (A1)
                 (B2) (A1) (A1) (B2) (A1) (A1) (A1) (B2) (A1) (B2)
                 (B1) (A1) (B2) (B1) (B2) (A2) (B1)
       Virtual   (B1) (A2) (A1) (B2) (A1) (B2) (A1) (B1) (B2) (A1)
                 (A1) (A1) (B1) (B2) (B1) (A1) (B1) (B2) (A2) (A1)
                 (B2) (A1) (B1) (A1) (B2) (A1) (A2) (A1) (B1) (B2)
                 (A1) (B2) (B1) (A1) (B2) (A1) (B1) (B2) (A1) (A1)
                 (B2) (A1) (B2) (A1) (B2) (A1) (A1) (B2) (A1) (B2)
                 (A1) (B2) (B2) (B1) (A1) (A1) (A1) (A2) (A2) (B1)
                 (A1) (A2) (B1) (A1) (A2) (B2) (B2) (A1) (B1) (A1)
                 (B2) (A1) (A1) (B1) (A1) (B2) (B2) (A2) (B1) (A1)
                 (B2) (B1) (A1) (A2) (B2) (A1) (A1) (B1) (A2) (B1)
                 (A2) (B2) (B1) (A1) (B2) (B1) (B2) (B1) (A1) (B2)
                 (B2) (A2) (A1) (B1) (A1) (B2) (B1) (A1) (A2) (A1)
                 (B1) (B2) (A1) (A2) (B1) (A1) (B2) (A1) (B2) (A1)
                 (A1) (B2) (A1) (A1) (B2) (A2) (B2) (B1) (A1) (B2)
                 (A1) (B2) (A1) (A1) (B2) (B1) (B2) (A1) (A1) (B2)
                 (A1) (B2) (A1) (A1) (B2) (A2) (B2) (B1) (A2) (A1)
                 (A1) (B1) (A2) (B1) (A1) (B2) (B2) (B1) (A2) (B1)
                 (B2) (B1) (A1) (A1) (A1) (A2) (B2) (A1) (B2) (B1)
                 (A1) (B2) (B1) (A2) (B2) (A1) (A1) (B2) (A1) (B1)
                 (A1) (B2) (B2) (A2) (B1) (A1) (A2) (B2) (A2) (A1)
                 (B1) (B1) (A2) (A1) (B1) (A1) (B2) (A2) (A1) (B2)
                 (A2) (B1) (A1) (B2) (A2) (B2) (A1) (A1) (B1) (A1)
                 (B2) (A2) (A1) (A2) (B2) (A1) (B1) (A2) (B1) (B1)
                 (A1) (A2) (B2) (A1) (B1) (A2) (A1) (B1) (B2) (A2)
                 (B1) (B2) (B1) (A2) (B2) (B2) (A1) (A1) (B1) (A2)
                 (A1) (B1) (A2) (A1) (B1) (B2) (B1) (A2) (A1) (B2)
                 (A1) (B2) (B1) (B2) (A1) (A1) (B2) (A1) (B2) (B2)
                 (B1) (A2) (A1) (A1) (B2) (A2) (B1) (A1) (B2) (A1)
                 (B1) (A2) (B2) (A1) (B2) (A1) (B2) (A1) (B2) (A1)
                 (B1) (B2) (B1) (A1) (B2) (B2) (A1) (A1) (A1) (B2)
                 (A1) (B2) (A1) (B2) (A1) (A1) (A1)
 Requested convergence on RMS density matrix=1.00D-08 within 128 cycles.
 Requested convergence on MAX density matrix=1.00D-06.
 Requested convergence on             energy=1.00D-06.
 No special actions if energy rises.
 SCF Done:  E(RB3LYP) =  -308.514595722     A.U. after    9 cycles
            NFock=  9  Conv=0.32D-08     -V/T= 2.0038
 Calling FoFJK, ICntrl=      2127 FMM=F ISym2X=1 I1Cent= 0 IOpClX= 0 NMat=1 NMatS=1 NMatT=0.
 ***** Axes restored to original set *****
 -------------------------------------------------------------------
 Center     Atomic                   Forces (Hartrees/Bohr)
 Number     Number              X              Y              Z
 -------------------------------------------------------------------
      1        6          -0.000000000    0.000000000    0.000110333
      2        6          -0.000000000   -0.000000000    0.000087307
      3        6           0.000000000    0.000217102    0.000068698
      4        6           0.000000000   -0.000217102    0.000068698
      5        6           0.000000000    0.000193814   -0.000103074
      6        6           0.000000000   -0.000193814   -0.000103074
      7        6          -0.000000000   -0.000000000   -0.000261386
      8        6          -0.000000000   -0.000000000    0.000092121
      9        1          -0.000000000   -0.000000000    0.000118437
     10        1           0.000000000    0.000059634    0.000038945
     11        1           0.000000000   -0.000059634    0.000038945
     12        1           0.000000000    0.000081069   -0.000044089
     13        1           0.000000000   -0.000081069   -0.000044089
     14        1          -0.000000000   -0.000000000   -0.000067771
 -------------------------------------------------------------------
 Cartesian Forces:  Max     0.000261386 RMS     0.000090302

 GradGradGradGradGradGradGradGradGradGradGradGradGradGradGradGradGradGrad
 Berny optimization.
 Using GEDIIS/GDIIS optimizer.
 FormGI is forming the generalized inverse of G from B-inverse, IUseBI=4.
 Internal  Forces:  Max     0.000345728 RMS     0.000116630
 Search for a local minimum.
 Step number   2 out of a maximum of   70
 All quantities printed in internal units (Hartrees-Bohrs-Radians)
 Mixed Optimization -- En-DIIS/RFO-DIIS
 Update second derivatives using D2CorX and points    1    2
 DE= -1.12D-04 DEPred=-1.20D-04 R= 9.27D-01
 TightC=F SS=  1.41D+00  RLast= 2.35D-02 DXNew= 5.0454D-01 7.0530D-02
 Trust test= 9.27D-01 RLast= 2.35D-02 DXMaxT set to 3.00D-01
 ITU=  1  0
 Use linear search instead of GDIIS.
     Eigenvalues ---    0.00582   0.00582   0.02023   0.02060   0.02111
     Eigenvalues ---    0.02128   0.02165   0.02167   0.02181   0.02193
     Eigenvalues ---    0.02197   0.04676   0.04676   0.15998   0.16000
     Eigenvalues ---    0.16000   0.16000   0.16000   0.21998   0.22000
     Eigenvalues ---    0.23475   0.25000   0.35209   0.35381   0.35389
     Eigenvalues ---    0.35453   0.35489   0.38069   0.41406   0.41681
     Eigenvalues ---    0.42104   0.45394   0.46681   0.46762   0.49837
     Eigenvalues ---    1.02773
 RFO step:  Lambda=-3.46070945D-07 EMin= 5.82014386D-03
 Quartic linear search produced a step of -0.06965.
 Iteration  1 RMS(Cart)=  0.00046628 RMS(Int)=  0.00000001
 Iteration  2 RMS(Cart)=  0.00000001 RMS(Int)=  0.00000000
 ClnCor:  largest displacement from symmetrization is 1.65D-11 for atom     8.
 Variable       Old X    -DE/DX   Delta X   Delta X   Delta X     New X
                                 (Linear)    (Quad)   (Total)
    R1        2.69471   0.00030   0.00028   0.00038   0.00066   2.69537
    R2        2.64841   0.00035   0.00046   0.00025   0.00070   2.64912
    R3        2.64841   0.00035   0.00046   0.00025   0.00070   2.64912
    R4        2.27104   0.00021   0.00034  -0.00016   0.00018   2.27123
    R5        2.62062   0.00031   0.00045   0.00015   0.00060   2.62122
    R6        2.04226   0.00007   0.00046  -0.00029   0.00017   2.04243
    R7        2.62062   0.00031   0.00045   0.00015   0.00060   2.62122
    R8        2.04226   0.00007   0.00046  -0.00029   0.00017   2.04243
    R9        2.62817   0.00032   0.00045   0.00017   0.00062   2.62879
   R10        2.04373   0.00009   0.00048  -0.00025   0.00023   2.04396
   R11        2.62817   0.00032   0.00045   0.00017   0.00062   2.62879
   R12        2.04373   0.00009   0.00048  -0.00025   0.00023   2.04396
   R13        2.04363   0.00007   0.00049  -0.00032   0.00016   2.04379
   R14        2.00510   0.00012   0.00036  -0.00008   0.00028   2.00538
    A1        2.10322   0.00002   0.00001   0.00007   0.00007   2.10329
    A2        2.10322   0.00002   0.00001   0.00007   0.00007   2.10329
    A3        2.07675  -0.00004  -0.00001  -0.00013  -0.00014   2.07660
    A4        2.10008   0.00002   0.00002   0.00006   0.00007   2.10015
    A5        2.08091  -0.00001   0.00003  -0.00009  -0.00006   2.08085
    A6        2.10220  -0.00001  -0.00005   0.00003  -0.00001   2.10218
    A7        2.10008   0.00002   0.00002   0.00006   0.00007   2.10015
    A8        2.08091  -0.00001   0.00003  -0.00009  -0.00006   2.08085
    A9        2.10220  -0.00001  -0.00005   0.00003  -0.00001   2.10218
   A10        2.09942   0.00001  -0.00003   0.00004   0.00002   2.09944
   A11        2.08814  -0.00000   0.00002  -0.00004  -0.00002   2.08812
   A12        2.09562  -0.00000   0.00001  -0.00001   0.00000   2.09562
   A13        2.09942   0.00001  -0.00003   0.00004   0.00002   2.09944
   A14        2.08814  -0.00000   0.00002  -0.00004  -0.00002   2.08812
   A15        2.09562  -0.00000   0.00001  -0.00001   0.00000   2.09562
   A16        2.09062  -0.00001   0.00003  -0.00007  -0.00004   2.09059
   A17        2.09628   0.00000  -0.00001   0.00003   0.00002   2.09630
   A18        2.09628   0.00000  -0.00001   0.00003   0.00002   2.09630
   A19        3.14159  -0.00000   0.00000  -0.00000   0.00000   3.14159
   A20        3.14159  -0.00000   0.00000  -0.00000   0.00000   3.14159
   A21        3.14159   0.00000   0.00000   0.00000   0.00000   3.14159
   A22        3.14159   0.00000   0.00000   0.00000   0.00000   3.14159
    D1        3.14159  -0.00000   0.00000  -0.00000   0.00000   3.14159
    D2       -0.00000  -0.00000   0.00000  -0.00000   0.00000   0.00000
    D3       -0.00000   0.00000   0.00000   0.00000   0.00000   0.00000
    D4        3.14159   0.00000   0.00000   0.00000   0.00000   3.14159
    D5        3.14159   0.00000   0.00000   0.00000   0.00000   3.14159
    D6       -0.00000  -0.00000   0.00000  -0.00000   0.00000   0.00000
    D7        0.00000  -0.00000   0.00000  -0.00000   0.00000   0.00000
    D8        3.14159  -0.00000   0.00000  -0.00000   0.00000   3.14159
    D9       -0.00000  -0.00000   0.00000  -0.00000   0.00000   0.00000
   D10        3.14159  -0.00000   0.00000  -0.00000   0.00000   3.14159
   D11        3.14159  -0.00000   0.00000  -0.00000   0.00000   3.14159
   D12        0.00000  -0.00000   0.00000  -0.00000  -0.00000   0.00000
   D13       -0.00000  -0.00000   0.00000  -0.00000   0.00000   0.00000
   D14        3.14159  -0.00000   0.00000  -0.00000   0.00000   3.14159
   D15        3.14159   0.00000   0.00000   0.00000   0.00000   3.14159
   D16        0.00000   0.00000   0.00000   0.00000   0.00000   0.00000
   D17        0.00000  -0.00000   0.00000  -0.00000   0.00000   0.00000
   D18        3.14159   0.00000   0.00000   0.00000   0.00000   3.14159
   D19        3.14159  -0.00000   0.00000  -0.00000   0.00000   3.14159
   D20        0.00000  -0.00000   0.00000  -0.00000   0.00000   0.00000
   D21       -0.00000   0.00000   0.00000   0.00000   0.00000   0.00000
   D22        3.14159   0.00000   0.00000   0.00000   0.00000   3.14159
   D23        3.14159   0.00000   0.00000   0.00000   0.00000   3.14159
   D24       -0.00000   0.00000   0.00000   0.00000   0.00000   0.00000
         Item               Value     Threshold  Converged?
 Maximum Force            0.000346     0.000450     YES
 RMS     Force            0.000117     0.000300     YES
 Maximum Displacement     0.001629     0.001800     YES
 RMS     Displacement     0.000466     0.001200     YES
 Predicted change in Energy=-8.112541D-07
 Optimization completed.
    -- Stationary point found.
                           ----------------------------
                           !   Optimized Parameters   !
                           ! (Angstroms and Degrees)  !
 --------------------------                            --------------------------
 ! Name  Definition              Value          Derivative Info.                !
 --------------------------------------------------------------------------------
 ! R1    R(1,2)                  1.426          -DE/DX =    0.0003              !
 ! R2    R(1,3)                  1.4015         -DE/DX =    0.0003              !
 ! R3    R(1,4)                  1.4015         -DE/DX =    0.0003              !
 ! R4    R(2,8)                  1.2018         -DE/DX =    0.0002              !
 ! R5    R(3,5)                  1.3868         -DE/DX =    0.0003              !
 ! R6    R(3,10)                 1.0807         -DE/DX =    0.0001              !
 ! R7    R(4,6)                  1.3868         -DE/DX =    0.0003              !
 ! R8    R(4,11)                 1.0807         -DE/DX =    0.0001              !
 ! R9    R(5,7)                  1.3908         -DE/DX =    0.0003              !
 ! R10   R(5,12)                 1.0815         -DE/DX =    0.0001              !
 ! R11   R(6,7)                  1.3908         -DE/DX =    0.0003              !
 ! R12   R(6,13)                 1.0815         -DE/DX =    0.0001              !
 ! R13   R(7,14)                 1.0814         -DE/DX =    0.0001              !
 ! R14   R(8,9)                  1.0611         -DE/DX =    0.0001              !
 ! A1    A(2,1,3)              120.5055         -DE/DX =    0.0                 !
 ! A2    A(2,1,4)              120.5055         -DE/DX =    0.0                 !
 ! A3    A(3,1,4)              118.9889         -DE/DX =    0.0                 !
 ! A4    A(1,3,5)              120.3255         -DE/DX =    0.0                 !
 ! A5    A(1,3,10)             119.2275         -DE/DX =    0.0                 !
 ! A6    A(5,3,10)             120.447          -DE/DX =    0.0                 !
 ! A7    A(1,4,6)              120.3255         -DE/DX =    0.0                 !
 ! A8    A(1,4,11)             119.2275         -DE/DX =    0.0                 !
 ! A9    A(6,4,11)             120.447          -DE/DX =    0.0                 !
 ! A10   A(3,5,7)              120.2881         -DE/DX =    0.0                 !
 ! A11   A(3,5,12)             119.6418         -DE/DX =    0.0                 !
 ! A12   A(7,5,12)             120.0701         -DE/DX =    0.0                 !
 ! A13   A(4,6,7)              120.2881         -DE/DX =    0.0                 !
 ! A14   A(4,6,13)             119.6418         -DE/DX =    0.0                 !
 ! A15   A(7,6,13)             120.0701         -DE/DX =    0.0                 !
 ! A16   A(5,7,6)              119.784          -DE/DX =    0.0                 !
 ! A17   A(5,7,14)             120.108          -DE/DX =    0.0                 !
 ! A18   A(6,7,14)             120.108          -DE/DX =    0.0                 !
 ! A19   L(1,2,8,10,-1)        180.0            -DE/DX =    0.0                 !
 ! A20   L(2,8,9,10,-1)        180.0            -DE/DX =    0.0                 !
 ! A21   L(1,2,8,10,-2)        180.0            -DE/DX =    0.0                 !
 ! A22   L(2,8,9,10,-2)        180.0            -DE/DX =    0.0                 !
 ! D1    D(2,1,3,5)            180.0            -DE/DX =    0.0                 !
 ! D2    D(2,1,3,10)             0.0            -DE/DX =    0.0                 !
 ! D3    D(4,1,3,5)              0.0            -DE/DX =    0.0                 !
 ! D4    D(4,1,3,10)           180.0            -DE/DX =    0.0                 !
 ! D5    D(2,1,4,6)            180.0            -DE/DX =    0.0                 !
 ! D6    D(2,1,4,11)             0.0            -DE/DX =    0.0                 !
 ! D7    D(3,1,4,6)              0.0            -DE/DX =    0.0                 !
 ! D8    D(3,1,4,11)           180.0            -DE/DX =    0.0                 !
 ! D9    D(1,3,5,7)              0.0            -DE/DX =    0.0                 !
 ! D10   D(1,3,5,12)           180.0            -DE/DX =    0.0                 !
 ! D11   D(10,3,5,7)           180.0            -DE/DX =    0.0                 !
 ! D12   D(10,3,5,12)            0.0            -DE/DX =    0.0                 !
 ! D13   D(1,4,6,7)              0.0            -DE/DX =    0.0                 !
 ! D14   D(1,4,6,13)           180.0            -DE/DX =    0.0                 !
 ! D15   D(11,4,6,7)           180.0            -DE/DX =    0.0                 !
 ! D16   D(11,4,6,13)            0.0            -DE/DX =    0.0                 !
 ! D17   D(3,5,7,6)              0.0            -DE/DX =    0.0                 !
 ! D18   D(3,5,7,14)           180.0            -DE/DX =    0.0                 !
 ! D19   D(12,5,7,6)           180.0            -DE/DX =    0.0                 !
 ! D20   D(12,5,7,14)            0.0            -DE/DX =    0.0                 !
 ! D21   D(4,6,7,5)              0.0            -DE/DX =    0.0                 !
 ! D22   D(4,6,7,14)           180.0            -DE/DX =    0.0                 !
 ! D23   D(13,6,7,5)           180.0            -DE/DX =    0.0                 !
 ! D24   D(13,6,7,14)            0.0            -DE/DX =    0.0                 !
 --------------------------------------------------------------------------------
 GradGradGradGradGradGradGradGradGradGradGradGradGradGradGradGradGradGrad

                          Input orientation:                          
 ---------------------------------------------------------------------
 Center     Atomic      Atomic             Coordinates (Angstroms)
 Number     Number       Type             X           Y           Z
 ---------------------------------------------------------------------
      1          6           0       -0.000000    0.000000    0.591470
      2          6           0       -0.000000    0.000000    2.017449
      3          6           0        0.000000    1.207487   -0.119951
[...]
    D7        0.00000  -0.00000   0.00000  -0.00000   0.00000   0.00000
    D8        3.14159  -0.00000   0.00000  -0.00000   0.00000   3.14159
    D9        0.00000  -0.00000   0.00000  -0.00000  -0.00000   0.00000
   D10        3.14159   0.00000   0.00000   0.00000   0.00000   3.14159
   D11        3.14159  -0.00000   0.00000  -0.00000   0.00000   3.14159
   D12       -0.00000  -0.00000   0.00000  -0.00000   0.00000   0.00000
   D13       -0.00000  -0.00000   0.00000  -0.00000   0.00000   0.00000
   D14        3.14159  -0.00000   0.00000  -0.00000   0.00000   3.14159
   D15        3.14159   0.00000   0.00000   0.00000   0.00000   3.14159
   D16        0.00000   0.00000   0.00000   0.00000  -0.00000   0.00000
   D17        0.00000  -0.00000   0.00000  -0.00000   0.00000   0.00000
   D18        3.14159   0.00000   0.00000  -0.00000   0.00000   3.14159
   D19        3.14159  -0.00000   0.00000  -0.00000   0.00000   3.14159
   D20        0.00000  -0.00000   0.00000  -0.00000   0.00000   0.00000
   D21       -0.00000   0.00000   0.00000   0.00000   0.00000   0.00000
   D22        3.14159   0.00000   0.00000   0.00000   0.00000   3.14159
   D23        3.14159   0.00000   0.00000   0.00000   0.00000   3.14159
   D24       -0.00000   0.00000   0.00000   0.00000   0.00000   0.00000
         Item               Value     Threshold  Converged?
 Maximum Force            0.000346     0.000450     YES
 RMS     Force            0.000117     0.000300     YES
 Maximum Displacement     0.001606     0.001800     YES
 RMS     Displacement     0.000460     0.001200     YES
 Predicted change in Energy=-7.991438D-07
 Optimization completed.
    -- Stationary point found.
                           ----------------------------
                           !   Optimized Parameters   !
                           ! (Angstroms and Degrees)  !
 --------------------------                            --------------------------
 ! Name  Definition              Value          Derivative Info.                !
 --------------------------------------------------------------------------------
 ! R1    R(1,2)                  1.426          -DE/DX =    0.0003              !
 ! R2    R(1,3)                  1.4015         -DE/DX =    0.0003              !
 ! R3    R(1,4)                  1.4015         -DE/DX =    0.0003              !
 ! R4    R(2,8)                  1.2018         -DE/DX =    0.0002              !
 ! R5    R(3,5)                  1.3868         -DE/DX =    0.0003              !
 ! R6    R(3,10)                 1.0807         -DE/DX =    0.0001              !
 ! R7    R(4,6)                  1.3868         -DE/DX =    0.0003              !
 ! R8    R(4,11)                 1.0807         -DE/DX =    0.0001              !
 ! R9    R(5,7)                  1.3908         -DE/DX =    0.0003              !
 ! R10   R(5,12)                 1.0815         -DE/DX =    0.0001              !
 ! R11   R(6,7)                  1.3908         -DE/DX =    0.0003              !
 ! R12   R(6,13)                 1.0815         -DE/DX =    0.0001              !
 ! R13   R(7,14)                 1.0814         -DE/DX =    0.0001              !
 ! R14   R(8,9)                  1.0611         -DE/DX =    0.0001              !
 ! A1    A(2,1,3)              120.5055         -DE/DX =    0.0                 !
 ! A2    A(2,1,4)              120.5055         -DE/DX =    0.0                 !
 ! A3    A(3,1,4)              118.9889         -DE/DX =    0.0                 !
 ! A4    A(1,3,5)              120.3255         -DE/DX =    0.0                 !
 ! A5    A(1,3,10)             119.2275         -DE/DX =    0.0                 !
 ! A6    A(5,3,10)             120.447          -DE/DX =    0.0                 !
 ! A7    A(1,4,6)              120.3255         -DE/DX =    0.0                 !
 ! A8    A(1,4,11)             119.2275         -DE/DX =    0.0                 !
 ! A9    A(6,4,11)             120.447          -DE/DX =    0.0                 !
 ! A10   A(3,5,7)              120.2881         -DE/DX =    0.0                 !
 ! A11   A(3,5,12)             119.6418         -DE/DX =    0.0                 !
 ! A12   A(7,5,12)             120.0701         -DE/DX =    0.0                 !
 ! A13   A(4,6,7)              120.2881         -DE/DX =    0.0                 !
 ! A14   A(4,6,13)             119.6418         -DE/DX =    0.0                 !
 ! A15   A(7,6,13)             120.0701         -DE/DX =    0.0                 !
 ! A16   A(5,7,6)              119.784          -DE/DX =    0.0                 !
 ! A17   A(5,7,14)             120.108          -DE/DX =    0.0                 !
 ! A18   A(6,7,14)             120.108          -DE/DX =    0.0                 !
 ! A19   L(1,2,8,10,-1)        180.0            -DE/DX =    0.0                 !
 ! A20   L(2,8,9,10,-1)        180.0            -DE/DX =    0.0                 !
 ! A21   L(1,2,8,10,-2)        180.0            -DE/DX =    0.0                 !
 ! A22   L(2,8,9,10,-2)        180.0            -DE/DX =    0.0                 !
 ! D1    D(2,1,3,5)            180.0            -DE/DX =    0.0                 !
 ! D2    D(2,1,3,10)             0.0            -DE/DX =    0.0                 !
 ! D3    D(4,1,3,5)              0.0            -DE/DX =    0.0                 !
 ! D4    D(4,1,3,10)           180.0            -DE/DX =    0.0                 !
 ! D5    D(2,1,4,6)            180.0            -DE/DX =    0.0                 !
 ! D6    D(2,1,4,11)             0.0            -DE/DX =    0.0                 !
 ! D7    D(3,1,4,6)              0.0            -DE/DX =    0.0                 !
 ! D8    D(3,1,4,11)           180.0            -DE/DX =    0.0                 !
 ! D9    D(1,3,5,7)              0.0            -DE/DX =    0.0                 !
 ! D10   D(1,3,5,12)           180.0            -DE/DX =    0.0                 !
 ! D11   D(10,3,5,7)           180.0            -DE/DX =    0.0                 !
 ! D12   D(10,3,5,12)            0.0            -DE/DX =    0.0                 !
 ! D13   D(1,4,6,7)              0.0            -DE/DX =    0.0                 !
 ! D14   D(1,4,6,13)           180.0            -DE/DX =    0.0                 !
 ! D15   D(11,4,6,7)           180.0            -DE/DX =    0.0                 !
 ! D16   D(11,4,6,13)            0.0            -DE/DX =    0.0                 !
 ! D17   D(3,5,7,6)              0.0            -DE/DX =    0.0                 !
 ! D18   D(3,5,7,14)           180.0            -DE/DX =    0.0                 !
 ! D19   D(12,5,7,6)           180.0            -DE/DX =    0.0                 !
 ! D20   D(12,5,7,14)            0.0            -DE/DX =    0.0                 !
 ! D21   D(4,6,7,5)              0.0            -DE/DX =    0.0                 !
 ! D22   D(4,6,7,14)           180.0            -DE/DX =    0.0                 !
 ! D23   D(13,6,7,5)           180.0            -DE/DX =    0.0                 !
 ! D24   D(13,6,7,14)            0.0            -DE/DX =    0.0                 !
 --------------------------------------------------------------------------------
 GradGradGradGradGradGradGradGradGradGradGradGradGradGradGradGradGradGrad


 ----------------------------------------------------------------------

 Electric dipole moment (input orientation):
 (Debye = 10**-18 statcoulomb cm , SI units = C m)
                  (au)            (Debye)         (10**-30 SI)
   Tot        0.288026D+00      0.732089D+00      0.244199D+01
   x          0.000000D+00      0.000000D+00      0.000000D+00
   y          0.000000D+00      0.000000D+00      0.000000D+00
   z         -0.288026D+00     -0.732089D+00     -0.244199D+01

 Dipole polarizability, Alpha (input orientation).
 (esu units = cm**3 , SI units = C**2 m**2 J**-1)
 Alpha(0;0):
               (au)            (10**-24 esu)      (10**-40 SI)
   iso        0.922006D+02      0.136627D+02      0.152018D+02
   aniso      0.809719D+02      0.119988D+02      0.133505D+02
   xx         0.484358D+02      0.717744D+01      0.798598D+01
   yx         0.000000D+00      0.000000D+00      0.000000D+00
   yy         0.867159D+02      0.128500D+02      0.142975D+02
   zx         0.000000D+00      0.000000D+00      0.000000D+00
   zy         0.000000D+00      0.000000D+00      0.000000D+00
   zz         0.141450D+03      0.209608D+02      0.233220D+02

 ----------------------------------------------------------------------

 Dipole orientation:
     6         -0.00000000          0.00000000         -1.11771631
     6         -0.00000000          0.00000000         -3.81242669
     6          0.00000000         -2.28181981          0.22667524
     6         -0.00000000          2.28181981          0.22667524
     6          0.00000000         -2.27358474          2.84728654
     6         -0.00000000          2.27358474          2.84728654
     6         -0.00000000         -0.00000000          4.16566237
     6         -0.00000000          0.00000000         -6.08347017
     1          0.00000000          0.00000000         -8.08857365
     1          0.00000000         -4.04568972         -0.80268455
     1         -0.00000000          4.04568972         -0.80268455
     1          0.00000000         -4.04667688          3.86364447
     1         -0.00000000          4.04667688          3.86364447
     1         -0.00000000         -0.00000000          6.20928823

 Electric dipole moment (dipole orientation):
 (Debye = 10**-18 statcoulomb cm , SI units = C m)
                  (au)            (Debye)         (10**-30 SI)
   Tot        0.288026D+00      0.732089D+00      0.244199D+01
   x          0.000000D+00      0.000000D+00      0.000000D+00
   y          0.000000D+00      0.000000D+00      0.000000D+00
   z          0.288026D+00      0.732089D+00      0.244199D+01

 Dipole polarizability, Alpha (dipole orientation).
 (esu units = cm**3 , SI units = C**2 m**2 J**-1)
 Alpha(0;0):
               (au)            (10**-24 esu)      (10**-40 SI)
   iso        0.922006D+02      0.136627D+02      0.152018D+02
   aniso      0.809719D+02      0.119988D+02      0.133505D+02
   xx         0.484358D+02      0.717744D+01      0.798598D+01
   yx         0.000000D+00      0.000000D+00      0.000000D+00
   yy         0.867159D+02      0.128500D+02      0.142975D+02
   zx         0.000000D+00      0.000000D+00      0.000000D+00
   zy         0.000000D+00      0.000000D+00      0.000000D+00
   zz         0.141450D+03      0.209608D+02      0.233220D+02

 ----------------------------------------------------------------------
 1\1\GINC-GAMBA\Freq\RB3LYP\Gen\C8H6\IRIKURA\16-Jun-2022\0\\#N Geom=All
 Check Guess=TCheck SCRF=Check GenChk RB3LYP/ChkBas Freq\\phenylacetyle
 ne, B3LYP/pcseg-2\\0,1\C,0.,0.,0.5914699984\C,0.,0.,2.0174493243\C,0.,
 1.2074870442,-0.1199513713\C,0.,-1.2074870442,-0.1199513713\C,0.,1.203
 1292321,-1.5067191522\C,0.,-1.2031292321,-1.5067191522\C,0.,0.,-2.2043
 735944\C,0.,0.,3.2192337768\H,0.,0.,4.2802888427\H,0.,2.1408868027,0.4
 24762369\H,0.,-2.1408868027,0.424762369\H,0.,2.1414091832,-2.044552606
 \H,0.,-2.1414091832,-2.044552606\H,0.,0.,-3.2858138266\\Version=ES64L-
 G16RevB.01\State=1-A1\HF=-308.5145957\RMSD=2.722e-09\RMSF=9.031e-05\Ze
 roPoint=0.1094436\Thermal=0.1158592\Dipole=0.,0.,-0.288026\DipoleDeriv
 =0.0060075,0.,0.,0.,0.0489148,0.,0.,0.,0.2843631,-0.0562893,0.,0.,0.,-
 0.1195787,0.,0.,0.,0.3551714,-0.0989303,0.,0.,0.,0.0321187,0.026623,0.
 ,0.0810998,-0.0791098,-0.0989303,0.,0.,0.,0.0321187,-0.026623,0.,-0.08
 10998,-0.0791098,-0.1317477,0.,0.,0.,0.0601966,-0.101556,0.,-0.1004817
 ,-0.0227752,-0.1317477,0.,0.,0.,0.0601966,0.101556,0.,0.1004817,-0.022
 7752,-0.124827,0.,0.,0.,-0.0210271,0.,0.,0.,0.0131826,-0.2569519,0.,0.
 ,0.,-0.2290349,0.,0.,0.,-0.7004649,0.226116,0.,0.,0.,0.2171715,0.,0.,0
 .,0.245444,0.1323012,0.,0.,0.,-0.0234403,-0.0535824,0.,-0.0658611,0.03
 64739,0.1323012,0.,0.,0.,-0.0234403,0.0535823,0.,0.0658611,0.0364739,0
 .1336811,0.,0.,0.,-0.051633,0.0773653,0.,0.0657854,0.0150947,0.1336811
 ,0.,0.,0.,-0.051633,-0.0773653,0.,-0.0657854,0.0150947,0.1353363,0.,0.
 ,0.,0.0690705,0.,0.,0.,-0.0970634\Polar=48.435758,0.,86.7159444,0.,0.,
 141.4501708\Quadrupole=-4.9954717,1.1395859,3.8558858,0.,0.,0.\PG=C02V
  [C2(H1C1C1C1C1H1),SGV(C4H4)]\NImag=0\\0.15019190,0.,0.62721773,0.,0.,
 0.67372508,-0.05576503,0.,0.,0.07474959,0.,-0.08001223,0.,0.,0.1093657
 4,0.,0.,-0.28787005,0.,0.,1.41063635,-0.06705235,0.,0.,0.00351553,0.,0
 .,0.13641379,0.,-0.26138727,0.09871403,0.,0.00504859,0.01845142,0.,0.7
 0179089,0.,0.04649837,-0.15725579,0.,0.03197462,-0.03968875,0.,0.04660
 134,0.69010250,-0.06705235,0.,0.,0.00351553,0.,0.,0.00915091,0.,0.,0.1
 3641379,0.,-0.26138727,-0.09871403,0.,0.00504859,-0.01845142,0.,-0.057
 10462,0.02076917,0.,0.70179089,0.,-0.04649837,-0.15725579,0.,-0.031974
 62,-0.03968875,0.,-0.02076917,0.06185140,0.,-0.04660134,0.69010250,0.0
 0716372,0.,0.,0.00712610,0.,0.,-0.06351228,0.,0.,-0.00591225,0.,0.,0.1
 3659421,0.,0.03275589,0.02808977,0.,-0.00467560,0.00436054,0.,-0.13059
 243,0.03199837,0.,-0.01672767,-0.02891123,0.,0.71872643,0.,0.07406535,
 -0.03125552,0.,0.00278250,0.00629291,0.,-0.03255642,-0.33652417,0.,-0.
 02785326,-0.05051454,0.,-0.03589040,0.68092399,0.00716372,0.,0.,0.0071
 2610,0.,0.,-0.00591225,0.,0.,-0.06351228,0.,0.,0.00767826,0.,0.,0.1365
 9421,0.,0.03275589,-0.02808977,0.,-0.00467560,-0.00436054,0.,-0.016727
 67,0.02891123,0.,-0.13059243,-0.03199837,0.,-0.05934009,-0.02321092,0.
 ,0.71872643,0.,-0.07406535,-0.03125552,0.,-0.00278250,0.00629291,0.,0.
 02785326,-0.05051454,0.,0.03255642,-0.33652417,0.,0.02321092,0.0652918
 4,0.,0.03589040,0.68092399,-0.00672404,0.,0.,-0.00122654,0.,0.,0.00763
 905,0.,0.,0.00763905,0.,0.,-0.06430983,0.,0.,-0.06430983,0.,0.,0.13643
 701,0.,-0.06745455,0.,0.,-0.00139881,0.,0.,0.03310154,-0.07769514,0.,0
 .03310154,0.07769514,0.,-0.27877216,-0.05262523,0.,-0.27877217,0.05262
 523,0.,0.65415712,0.,0.,0.00275067,0.,0.,-0.00287683,0.,-0.03055419,-0
 .02903615,0.,0.03055419,-0.02903615,0.,-0.11855831,-0.17975922,0.,0.11
 855831,-0.17975922,0.,0.,0.74028449,0.00535229,0.,0.,-0.03279924,0.,0.
 ,0.00140797,0.,0.,0.00140797,0.,0.,-0.00048297,0.,0.,-0.00048297,0.,0.
 ,0.00011831,0.,0.,0.04507410,0.,0.00705889,0.,0.,-0.03247762,0.,0.,-0.
 00134916,0.00025150,0.,-0.00134916,-0.00025150,0.,0.00025656,-0.000775
 34,0.,0.00025656,0.00077534,0.,0.00079610,0.,0.,0.04878207,0.,0.,-0.02
 365346,0.,0.,-1.05950822,0.,-0.00896981,0.00372131,0.,0.00896981,0.003
 72131,0.,0.00011108,-0.00254218,0.,-0.00011108,-0.00254218,0.,0.,0.000
 86433,0.,0.,1.49906306,0.00500307,0.,0.,0.00189655,0.,0.,-0.00003503,0
 .,0.,-0.00003503,0.,0.,-0.00032673,0.,0.,-0.00032673,0.,0.,0.00002111,
 0.,0.,-0.01946199,0.,0.,0.01280663,0.,0.00623477,0.,0.,0.00174813,0.,0
 .,-0.00023004,-0.00108678,0.,-0.00023004,0.00108678,0.,0.00021251,-0.0
 0005140,0.,0.00021251,0.00005140,0.,0.00002606,0.,0.,-0.02249830,0.,0.
 ,0.01466494,0.,0.,0.00080214,0.,0.,0.00420802,0.,0.00014180,0.00000375
 ,0.,-0.00014180,0.00000375,0.,0.00008045,0.00003466,0.,-0.00008045,0.0
 0003466,0.,0.,0.00010967,0.,0.,-0.41792707,0.,0.,0.41273038,0.00380074
 ,0.,0.,-0.00382497,0.,0.,-0.03768723,0.,0.,0.00638275,0.,0.,0.00389046
 ,0.,0.,-0.00104858,0.,0.,0.00755531,0.,0.,0.00002365,0.,0.,0.00021491,
 0.,0.,0.02561671,0.,-0.01920902,-0.01548004,0.,0.00083147,-0.00143416,
 0.,-0.26888240,-0.12088852,0.,-0.00295235,0.00405546,0.,0.00440708,0.0
 0208994,0.,0.00023368,0.00076029,0.,0.00168853,0.00062633,0.,0.0002930
 8,0.00074452,0.,-0.00005239,0.00002808,0.,0.28377242,0.,0.01537862,0.0
 1044775,0.,0.00055543,0.00132995,0.,-0.12270865,-0.12982594,0.,0.00318
 227,-0.00120038,0.,-0.02866803,-0.01063607,0.,0.00076313,-0.00063945,0
 .,0.00134693,-0.00552054,0.,-0.00017230,0.00001094,0.,0.00000917,-0.00
 003221,0.,0.13057891,0.13499835,0.00380074,0.,0.,-0.00382497,0.,0.,0.0
 0638275,0.,0.,-0.03768723,0.,0.,-0.00104858,0.,0.,0.00389046,0.,0.,0.0
 0755531,0.,0.,0.00002365,0.,0.,0.00021491,0.,0.,0.00031792,0.,0.,0.025
 61671,0.,-0.01920902,0.01548004,0.,0.00083147,0.00143416,0.,-0.0029523
 5,-0.00405546,0.,-0.26888240,0.12088852,0.,0.00023368,-0.00076029,0.,0
 .00440708,-0.00208994,0.,0.00168853,-0.00062633,0.,0.00029308,-0.00074
 452,0.,-0.00005239,-0.00002808,0.,-0.00096855,0.00079982,0.,0.28377242
 ,0.,-0.01537862,0.01044775,0.,-0.00055543,0.00132995,0.,-0.00318227,-0
 .00120038,0.,0.12270865,-0.12982594,0.,-0.00076313,-0.00063945,0.,0.02
 866803,-0.01063607,0.,-0.00134693,-0.00552054,0.,0.00017230,0.00001094
 ,0.,-0.00000917,-0.00003221,0.,-0.00079982,0.00053036,0.,-0.13057891,0
 .13499835,0.00754681,0.,0.,0.00034396,0.,0.,0.00349115,0.,0.,-0.001092
 27,0.,0.,-0.03770264,0.,0.,0.00726107,0.,0.,0.00350373,0.,0.,-0.000128
 96,0.,0.,-0.00001953,0.,0.,-0.00427661,0.,0.,-0.00104387,0.,0.,0.02601
 336,0.,0.00196142,-0.00085319,0.,0.00009909,-0.00003482,0.,0.00364486,
 -0.00175418,0.,0.00020720,-0.00086501,0.,-0.26801669,0.11947034,0.,-0.
 00311285,-0.00405273,0.,-0.01909309,0.01597529,0.,-0.00005268,0.000028
 63,0.,-0.00000928,-0.00001917,0.,0.00078093,0.00037383,0.,-0.00001156,
 0.00008260,0.,0.28354698,0.,-0.00111287,-0.00514657,0.,0.00133280,-0.0
 0028365,0.,0.02929958,-0.01151393,0.,-0.00085772,-0.00075390,0.,0.1193
 3105,-0.12815595,0.,-0.00324161,-0.00085936,0.,-0.01517114,0.01208147,
 0.,-0.00010220,-0.00054112,0.,-0.00006129,0.00002277,0.,-0.00042288,0.
 00109998,0.,0.00008148,0.00006483,0.,-0.12889420,0.13275300,0.00754681
 ,0.,0.,0.00034396,0.,0.,-0.00109227,0.,0.,0.00349115,0.,0.,0.00726107,
 0.,0.,-0.03770264,0.,0.,0.00350373,0.,0.,-0.00012896,0.,0.,-0.00001953
 ,0.,0.,-0.00104387,0.,0.,-0.00427661,0.,0.,0.00012357,0.,0.,0.02601336
 ,0.,0.00196142,0.00085319,0.,0.00009909,0.00003482,0.,0.00020720,0.000
 86501,0.,0.00364486,0.00175418,0.,-0.00311285,0.00405273,0.,-0.2680166
 9,-0.11947034,0.,-0.01909309,-0.01597529,0.,-0.00005268,-0.00002863,0.
 ,-0.00000928,0.00001917,0.,-0.00001156,-0.00008260,0.,0.00078093,-0.00
 037383,0.,-0.00100437,-0.00079669,0.,0.28354698,0.,0.00111287,-0.00514
 657,0.,-0.00133280,-0.00028365,0.,0.00085772,-0.00075390,0.,-0.0292995
 8,-0.01151393,0.,0.00324161,-0.00085936,0.,-0.11933105,-0.12815595,0.,
 0.01517114,0.01208147,0.,0.00010220,-0.00054112,0.,0.00006129,0.000022
 77,0.,-0.00008148,0.00006483,0.,0.00042288,0.00109998,0.,0.00079669,0.
 00039184,0.,0.12889420,0.13275300,-0.00097604,0.,0.,-0.00117658,0.,0.,
 0.00729028,0.,0.,0.00729028,0.,0.,0.00358144,0.,0.,0.00358144,0.,0.,-0
 .03740237,0.,0.,0.00007715,0.,0.,0.00006741,0.,0.,0.00007881,0.,0.,0.0
 0007881,0.,0.,-0.00401977,0.,0.,-0.00401977,0.,0.,0.02554890,0.,-0.001
 28663,0.,0.,0.00016767,0.,0.,-0.00456714,-0.00238954,0.,-0.00456714,0.
 00238954,0.,0.00464536,-0.02873760,0.,0.00464536,0.02873760,0.,-0.0599
 7556,0.,0.,0.00004327,0.,0.,-0.00001722,0.,0.,0.00006909,-0.00135654,0
 .,0.00006909,0.00135654,0.,0.00106003,0.00061569,0.,0.00106003,-0.0006
 1569,0.,0.05865380,0.,0.,0.00066589,0.,0.,0.00010983,0.,-0.00317864,0.
 00063459,0.,0.00317864,0.00063459,0.,0.00236731,-0.01165693,0.,-0.0023
 6731,-0.01165694,0.,0.,-0.33666345,0.,0.,-0.00013654,0.,0.,0.00001891,
 0.,0.00022336,-0.00062757,0.,-0.00022336,-0.00062757,0.,-0.00025405,0.
 00084060,0.,0.00025405,0.00084060,0.,0.,0.35762400\\0.,0.,-0.00011026,
 0.,0.,-0.00008738,0.,-0.00021724,-0.00006868,0.,0.00021724,-0.00006868
 ,0.,-0.00019384,0.00010299,0.,0.00019384,0.00010299,0.,0.,0.00026139,0
 .,0.,-0.00009210,0.,0.,-0.00011846,0.,-0.00005956,-0.00003891,0.,0.000
 05956,-0.00003891,0.,-0.00008108,0.00004410,0.,0.00008108,0.00004410,0
 .,0.,0.00006781\\\@


 THOSE WHO TRY TO PASS CHEMISTRY OFF AS A NEW SCIENCE
 SHOW HOW LITTLE KNOWLEDGE THEY HAVE OF THE CHARACTER
 AND LITERATURE OF THE ANCIENTS.
   -- NICOLAS LEFEVRE
 "COURS DE CHYMIE" J.-N.LELOUP, PARIS, 1751
 Job cpu time:       0 days  0 hours 48 minutes 33.9 seconds.
 Elapsed time:       0 days  0 hours  4 minutes  2.9 seconds.
 File lengths (MBytes):  RWF=     98 Int=      0 D2E=      0 Chk=      9 Scr=      1
 Normal termination of Gaussian 16 at Thu Jun 16 14:22:20 2022.
