 Entering Gaussian System, Link 0=g16
 AtFile(1): pcseg2.gbs
            -H     0
            S   4   1.00
                  0.754732D+02           0.427821D-02
                  0.113575D+02           0.328672D-01
                  0.260081D+01           0.159578D+00
                  0.735503D+00           0.500000D+00
            S   1   1.00
                  0.231761D+00           1.0000000
            S   1   1.00
                  0.741675D-01           1.0000000
            P   1   1.00
                  0.160000D+01           1.0000000
            P   1   1.00
                  0.450000D+00           1.0000000
            D   1   1.00
                  0.125000D+01           1.0000000
            ****
            -C     0
            S   7   1.00
                  0.731999D+04           0.695369D-03
                  0.109818D+04           0.537138D-02
                  0.250014D+03           0.274734D-01
                  0.707586D+02           0.105078D+00
                  0.228595D+02           0.291262D+00
                  0.803936D+01           0.500000D+00
                  0.289309D+01           0.362224D+00
            S   2   1.00
                  0.521640D+01          -0.957844D-01
                  0.556124D+00           0.500000D+00
            S   1   1.00
                  0.228813D+00           1.0000000
            S   1   1.00
                  0.936338D-01           1.0000000
            P   4   1.00
                  0.339855D+02           0.818395D-02
                  0.772957D+01           0.586921D-01
                  0.224954D+01           0.222514D+00
                  0.767681D+00           0.500000D+00
            P   1   1.00
                  0.263283D+00           1.0000000
            P   1   1.00
                  0.848744D-01           1.0000000
            D   1   1.00
                  0.140000D+01           1.0000000
            D   1   1.00
                  0.450000D+00           1.0000000
            F   1   1.00
                  0.950000D+00           1.0000000
            ****
            -O     0
            S   7   1.00
                  0.135887D+05           0.665492D-03
                  0.203847D+04           0.514222D-02
                  0.464041D+03           0.263472D-01
                  0.131339D+03           0.101500D+00
                  0.425340D+02           0.285877D+00
                  0.150429D+02           0.500000D+00
                  0.546616D+01           0.368211D+00
            S   2   1.00
                  0.100915D+02          -0.100084D+00
                  0.110429D+01           0.500000D+00
            S   1   1.00
                  0.448082D+00           1.0000000
            S   1   1.00
                  0.175325D+00           1.0000000
            P   4   1.00
                  0.608220D+02           0.908253D-02
                  0.140332D+02           0.645878D-01
                  0.418244D+01           0.241502D+00
                  0.142490D+01           0.500000D+00
            P   1   1.00
                  0.478741D+00           1.0000000
            P   1   1.00
                  0.146257D+00           1.0000000
            D   1   1.00
                  0.220000D+01           1.0000000
            D   1   1.00
                  0.650000D+00           1.0000000
            F   1   1.00
                  0.110000D+01           1.0000000
            ****
            -N     0
            S   7   1.00
                  0.101643D+05           0.682757D-03
                  0.152481D+04           0.527488D-02
                  0.347119D+03           0.270037D-01
                  0.982389D+02           0.103673D+00
                  0.317799D+02           0.289575D+00
                  0.112240D+02           0.500000D+00
                  0.406611D+01           0.364621D+00
            S   2   1.00
                  0.747898D+01          -0.975681D-01
                  0.805040D+00           0.500000D+00
            S   1   1.00
                  0.324626D+00           1.0000000
            S   1   1.00
                  0.128132D+00           1.0000000
            P   4   1.00
                  0.482704D+02           0.829547D-02
                  0.110815D+02           0.596223D-01
                  0.326643D+01           0.227889D+00
                  0.111680D+01           0.500000D+00
            P   1   1.00
                  0.382049D+00           1.0000000
            P   1   1.00
                  0.121222D+00           1.0000000
            D   1   1.00
                  0.180000D+01           1.0000000
            D   1   1.00
                  0.550000D+00           1.0000000
            F   1   1.00
                  0.102000D+01           1.0000000
            ****
            -F     0
            S   7   1.00
                  0.174507D+05           0.655972D-03
                  0.261768D+04           0.506944D-02
                  0.595857D+03           0.259899D-01
                  0.168651D+03           0.100353D+00
                  0.546654D+02           0.284095D+00
                  0.193717D+02           0.500000D+00
                  0.706202D+01           0.370721D+00
            S   2   1.00
                  0.131197D+02          -0.101997D+00
                  0.145046D+01           0.500000D+00
            S   1   1.00
                  0.588255D+00           1.0000000
            S   1   1.00
                  0.227960D+00           1.0000000
            P   4   1.00
                  0.779407D+02           0.931135D-02
                  0.180425D+02           0.663964D-01
                  0.542342D+01           0.246386D+00
                  0.184876D+01           0.500000D+00
            P   1   1.00
                  0.617455D+00           1.0000000
            P   1   1.00
                  0.185496D+00           1.0000000
            D   1   1.00
                  0.280000D+01           1.0000000
            D   1   1.00
                  0.800000D+00           1.0000000
            F   1   1.00
                  0.120000D+01           1.0000000
            ****
            -Cl     0
            S   8   1.00
                  0.154272D+06           0.222473D-03
                  0.231232D+05           0.172590D-02
                  0.526257D+04           0.899286D-02
                  0.148995D+04           0.367724D-01
                  0.485417D+03           0.121446D+00
                  0.174634D+03           0.304148D+00
                  0.672393D+02           0.500000D+00
                  0.265780D+02           0.360252D+00
            S   3   1.00
                  0.131826D+03          -0.531330D-01
                  0.400703D+02          -0.233346D+00
                  0.789448D+01           0.500000D+00
            S   2   1.00
                  0.427711D+01           0.500000D+00
                  0.196233D+01           0.370517D+00
            S   1   1.00
                  0.520793D+00           1.0000000
            S   1   1.00
                  0.181633D+00           1.0000000
            P   7   1.00
                  0.124440D+04           0.988206D-03
                  0.295109D+03           0.829674D-02
                  0.947224D+02           0.430906D-01
                  0.352588D+02           0.148443D+00
                  0.144211D+02           0.344744D+00
                  0.610371D+01           0.500000D+00
                  0.258886D+01           0.348278D+00
            P   2   1.00
                  0.109447D+02          -0.196768D-01
                  0.104413D+01           0.500000D+00
            P   1   1.00
                  0.376184D+00           1.0000000
            P   1   1.00
                  0.120613D+00           1.0000000
            D   1   1.00
                  0.231000D+01           1.0000000
            D   1   1.00
                  0.520000D+00           1.0000000
            F   1   1.00
                  0.720000D+00           1.0000000
            ****
            -S     0
            S   8   1.00
                  0.134700D+06           0.226231D-03
                  0.201904D+05           0.175488D-02
                  0.459528D+04           0.914190D-02
                  0.130109D+04           0.373551D-01
                  0.423902D+03           0.123121D+00
                  0.152485D+03           0.306801D+00
                  0.586925D+02           0.500000D+00
                  0.231461D+02           0.354358D+00
            S   3   1.00
                  0.116327D+03          -0.491772D-01
                  0.352841D+02          -0.215962D+00
                  0.677831D+01           0.500000D+00
            S   2   1.00
                  0.360404D+01           0.500000D+00
                  0.164871D+01           0.366278D+00
            S   1   1.00
                  0.421821D+00           1.0000000
            S   1   1.00
                  0.147554D+00           1.0000000
            P   7   1.00
                  0.104863D+04           0.105273D-02
                  0.248717D+03           0.879338D-02
                  0.797887D+02           0.453358D-01
                  0.296023D+02           0.154476D+00
                  0.120627D+02           0.352366D+00
                  0.507628D+01           0.500000D+00
                  0.213375D+01           0.346429D+00
            P   2   1.00
                  0.928958D+01          -0.185932D-01
                  0.837819D+00           0.500000D+00
            P   1   1.00
                  0.301495D+00           1.0000000
            P   1   1.00
                  0.974740D-01           1.0000000
            D   1   1.00
                  0.210000D+01           1.0000000
            D   1   1.00
                  0.480000D+00           1.0000000
            F   1   1.00
                  0.660000D+00           1.0000000
            ****
            -Br     0
            S    10   1.00
                  0.233625D+07           0.532336D-04
                  0.349961D+06           0.413715D-03
                  0.796444D+05           0.217123D-02
                  0.225555D+05           0.910109D-02
                  0.735546D+04           0.323789D-01
                  0.265352D+04           0.988755D-01
                  0.103517D+04           0.248138D+00
                  0.422205D+03           0.474328D+00
                  0.180035D+03           0.500000D+00
                  0.793308D+02           0.187769D+00
            S    4   1.00
                  0.620834D+03          -0.226511D-01
                  0.190829D+03          -0.109497D+00
                  0.312505D+02           0.500000D+00
                  0.135270D+02           0.492812D+00
            S    2   1.00
                  0.216097D+02          -0.165418D+00
                  0.372566D+01           0.500000D+00
            S    1   1.00
                  0.169770D+01           1.0000000
            S    1   1.00
                  0.489332D+00           1.0000000
            S    1   1.00
                  0.175712D+00           1.0000000
            P    8   1.00
                  0.960829D+04           0.478974D-03
                  0.227618D+04           0.417853D-02
                  0.736723D+03           0.229315D-01
                  0.281579D+03           0.892653D-01
                  0.118395D+03           0.255288D+00
                  0.527481D+02           0.479074D+00
                  0.245098D+02           0.500000D+00
                  0.112009D+02           0.200944D+00
            P    4   1.00
                  0.587849D+02          -0.189674D-01
                  0.918962D+01           0.264104D+00
                  0.413895D+01           0.500000D+00
                  0.184225D+01           0.319316D+00
            P    1   1.00
                  0.713862D+00           1.0000000
            P    1   1.00
                  0.274232D+00           1.0000000
            P    1   1.00
                  0.944411D-01           1.0000000
            D    7   1.00
                  0.398470D+03           0.204066D-02
                  0.118967D+03           0.175171D-01
                  0.450197D+02           0.829708D-01
                  0.190320D+02           0.236284D+00
                  0.855686D+01           0.428468D+00
                  0.382950D+01           0.500000D+00
                  0.166291D+01           0.349360D+00
            D    1   1.00
                  0.672953D+00           1.0000000
            D    1   1.00
                  0.252000D+00           1.0000000
            F    1   1.00
                  0.530000D+00           1.0000000
            ****
            -Si     0
            S    8   1.00
                  0.996133D+05           0.235546D-03
                  0.149311D+05           0.182707D-02
                  0.339820D+04           0.951425D-02
                  0.962140D+03           0.388172D-01
                  0.313430D+03           0.127328D+00
                  0.112683D+03           0.313522D+00
                  0.433372D+02           0.500000D+00
                  0.170029D+02           0.340347D+00
            S    3   1.00
                  0.884208D+02          -0.404451D-01
                  0.266756D+02          -0.178059D+00
                  0.479640D+01           0.500000D+00
            S    2   1.00
                  0.239385D+01           0.500000D+00
                  0.108333D+01           0.338016D+00
            S    1   1.00
                  0.252420D+00           1.0000000
            S    1   1.00
                  0.891210D-01           1.0000000
            P    7   1.00
                  0.709901D+03           0.123028D-02
                  0.168426D+03           0.101366D-01
                  0.539946D+02           0.511840D-01
                  0.198646D+02           0.169967D+00
                  0.801369D+01           0.370717D+00
                  0.331870D+01           0.500000D+00
                  0.136112D+01           0.344128D+00
            P    2   1.00
                  0.622158D+01          -0.166609D-01
                  0.503049D+00           0.500000D+00
            P    1   1.00
                  0.179848D+00           1.0000000
            P    1   1.00
                  0.591912D-01           1.0000000
            D    1   1.00
                  0.168000D+01           1.0000000
            D    1   1.00
                  0.380000D+00           1.0000000
            F    1   1.00
                  0.540000D+00           1.0000000
            ****
            -P     0
            S    8   1.00
                  0.116416D+06           0.230715D-03
                  0.174500D+05           0.178960D-02
                  0.397149D+04           0.932116D-02
                  0.112447D+04           0.380591D-01
                  0.366347D+03           0.125148D+00
                  0.131757D+03           0.310022D+00
                  0.506988D+02           0.500000D+00
                  0.199436D+02           0.347528D+00
            S    3   1.00
                  0.101878D+03          -0.446755D-01
                  0.308249D+02          -0.196376D+00
                  0.573688D+01           0.500000D+00
            S    2   1.00
                  0.296868D+01           0.500000D+00
                  0.135315D+01           0.355098D+00
            S    1   1.00
                  0.332196D+00           1.0000000
            S    1   1.00
                  0.116229D+00           1.0000000
            P    7   1.00
                  0.873928D+03           0.112375D-02
                  0.207298D+03           0.933330D-02
                  0.664628D+02           0.477213D-01
                  0.245665D+02           0.160733D+00
                  0.996820D+01           0.359760D+00
                  0.416536D+01           0.500000D+00
                  0.173022D+01           0.346593D+00
            P    2   1.00
                  0.772530D+01          -0.175718D-01
                  0.657252D+00           0.500000D+00
            P    1   1.00
                  0.239903D+00           1.0000000
            P    1   1.00
                  0.800988D-01           1.0000000
            D    1   1.00
                  0.189000D+01           1.0000000
            D    1   1.00
                  0.430000D+00           1.0000000
            F    1   1.00
                  0.600000D+00           1.0000000
            ****
            
 Initial command:
 /usr/local/apps/g16_b01_avx/g16/l1.exe "/wrk/irikura/Gau-486061.inp" -scrdir="/wrk/irikura/"
 Entering Link 1 = /usr/local/apps/g16_b01_avx/g16/l1.exe PID=    486063.
  
 Copyright (c) 1988-2017, Gaussian, Inc.  All Rights Reserved.
  
 This is part of the Gaussian(R) 16 program.  It is based on
 the Gaussian(R) 09 system (copyright 2009, Gaussian, Inc.),
 the Gaussian(R) 03 system (copyright 2003, Gaussian, Inc.),
 the Gaussian(R) 98 system (copyright 1998, Gaussian, Inc.),
 the Gaussian(R) 94 system (copyright 1995, Gaussian, Inc.),
 the Gaussian 92(TM) system (copyright 1992, Gaussian, Inc.),
 the Gaussian 90(TM) system (copyright 1990, Gaussian, Inc.),
 the Gaussian 88(TM) system (copyright 1988, Gaussian, Inc.),
 the Gaussian 86(TM) system (copyright 1986, Carnegie Mellon
 University), and the Gaussian 82(TM) system (copyright 1983,
 Carnegie Mellon University). Gaussian is a federally registered
 trademark of Gaussian, Inc.
  
 This software contains proprietary and confidential information,
 including trade secrets, belonging to Gaussian, Inc.
  
 This software is provided under written license and may be
 used, copied, transmitted, or stored only in accord with that
 written license.
  
 The following legend is applicable only to US Government
 contracts under FAR:
  
                    RESTRICTED RIGHTS LEGEND
  
 Use, reproduction and disclosure by the US Government is
 subject to restrictions as set forth in subparagraphs (a)
 and (c) of the Commercial Computer Software - Restricted
 Rights clause in FAR 52.227-19.
  
 Gaussian, Inc.
 340 Quinnipiac St., Bldg. 40, Wallingford CT 06492
  
  
 ---------------------------------------------------------------
 Warning -- This program may not be used in any manner that
 competes with the business of Gaussian, Inc. or will provide
 assistance to any competitor of Gaussian, Inc.  The licensee
 of this program is prohibited from giving any competitor of
 Gaussian, Inc. access to this program.  By using this program,
 the user acknowledges that Gaussian, Inc. is engaged in the
 business of creating and licensing software in the field of
 computational chemistry and represents and warrants to the
 licensee that it is not a competitor of Gaussian, Inc. and that
 it will not use this program in any manner prohibited above.
 ---------------------------------------------------------------
  

 Cite this work as:
 Gaussian 16, Revision B.01,
 M. J. Frisch, G. W. Trucks, H. B. Schlegel, G. E. Scuseria, 
 M. A. Robb, J. R. Cheeseman, G. Scalmani, V. Barone, 
 G. A. Petersson, H. Nakatsuji, X. Li, M. Caricato, A. V. Marenich, 
 J. Bloino, B. G. Janesko, R. Gomperts, B. Mennucci, H. P. Hratchian, 
 J. V. Ortiz, A. F. Izmaylov, J. L. Sonnenberg, D. Williams-Young, 
 F. Ding, F. Lipparini, F. Egidi, J. Goings, B. Peng, A. Petrone, 
 T. Henderson, D. Ranasinghe, V. G. Zakrzewski, J. Gao, N. Rega, 
 G. Zheng, W. Liang, M. Hada, M. Ehara, K. Toyota, R. Fukuda, 
 J. Hasegawa, M. Ishida, T. Nakajima, Y. Honda, O. Kitao, H. Nakai, 
 T. Vreven, K. Throssell, J. A. Montgomery, Jr., J. E. Peralta, 
 F. Ogliaro, M. J. Bearpark, J. J. Heyd, E. N. Brothers, K. N. Kudin, 
 V. N. Staroverov, T. A. Keith, R. Kobayashi, J. Normand, 
 K. Raghavachari, A. P. Rendell, J. C. Burant, S. S. Iyengar, 
 J. Tomasi, M. Cossi, J. M. Millam, M. Klene, C. Adamo, R. Cammi, 
 J. W. Ochterski, R. L. Martin, K. Morokuma, O. Farkas, 
 J. B. Foresman, and D. J. Fox, Gaussian, Inc., Wallingford CT, 2016.
 
 ******************************************
 Gaussian 16:  ES64L-G16RevB.01 20-Dec-2017
                30-Sep-2023 
 ******************************************
 %chk=phcl.chk
 %mem=500mw
 %nprocs=4
 Will use up to    4 processors via shared memory.
 ---------------------------------------
 # b3lyp/gen opt freq CPHF(Grid=OneStep)
 ---------------------------------------
 1/18=20,19=15,26=3,38=1/1,3;
 2/9=110,12=2,17=6,18=5,40=1/2;
 3/5=7,11=2,25=1,30=1,71=1,74=-5/1,2,3;
 4//1;
 5/5=2,38=5/2;
 6/7=2,8=2,9=2,10=2,28=1/1;
 7//1,2,3,16;
 1/18=20,19=15,26=3/3(2);
 2/9=110/2;
 99//99;
 2/9=110/2;
 3/5=7,6=1,11=2,25=1,30=1,71=1,74=-5,82=7/1,2,3;
 4/5=5,16=3,69=1/1;
 5/5=2,38=5/2;
 7//1,2,3,16;
 1/18=20,19=15,26=3/3(-5);
 2/9=110/2;
 6/7=2,8=2,9=2,10=2,19=2,28=1/1;
 99/9=1/99;
 ----------------------------
 chlorobenzene, B3LYP/pcseg-2
 ----------------------------
 Symbolic Z-matrix:
 Charge =  0 Multiplicity = 1
 Cl                    0.        0.        2.25423 
 C                     0.        0.        0.50297 
 C                     0.        1.20998  -0.17755 
 C                     0.       -1.20998  -0.17755 
 C                     0.        1.20209  -1.56757 
 C                     0.       -1.20209  -1.56757 
 C                     0.        0.       -2.26531 
 H                     0.        2.13897   0.37311 
 H                     0.       -2.13897   0.37311 
 H                     0.        2.14164  -2.10319 
 H                     0.       -2.14164  -2.10319 
 H                     0.        0.       -3.34639 
 

 GradGradGradGradGradGradGradGradGradGradGradGradGradGradGradGradGradGrad
 Berny optimization.
 Initialization pass.
                           ----------------------------
                           !    Initial Parameters    !
                           ! (Angstroms and Degrees)  !
 --------------------------                            --------------------------
 ! Name  Definition              Value          Derivative Info.                !
 --------------------------------------------------------------------------------
 ! R1    R(1,2)                  1.7513         estimate D2E/DX2                !
 ! R2    R(2,3)                  1.3882         estimate D2E/DX2                !
 ! R3    R(2,4)                  1.3882         estimate D2E/DX2                !
 ! R4    R(3,5)                  1.39           estimate D2E/DX2                !
 ! R5    R(3,8)                  1.0799         estimate D2E/DX2                !
 ! R6    R(4,6)                  1.39           estimate D2E/DX2                !
 ! R7    R(4,9)                  1.0799         estimate D2E/DX2                !
 ! R8    R(5,7)                  1.3899         estimate D2E/DX2                !
 ! R9    R(5,10)                 1.0815         estimate D2E/DX2                !
 ! R10   R(6,7)                  1.3899         estimate D2E/DX2                !
 ! R11   R(6,11)                 1.0815         estimate D2E/DX2                !
 ! R12   R(7,12)                 1.0811         estimate D2E/DX2                !
 ! A1    A(1,2,3)              119.3544         estimate D2E/DX2                !
 ! A2    A(1,2,4)              119.3544         estimate D2E/DX2                !
 ! A3    A(3,2,4)              121.2913         estimate D2E/DX2                !
 ! A4    A(2,3,5)              119.0292         estimate D2E/DX2                !
 ! A5    A(2,3,8)              119.9883         estimate D2E/DX2                !
 ! A6    A(5,3,8)              120.9825         estimate D2E/DX2                !
 ! A7    A(2,4,6)              119.0292         estimate D2E/DX2                !
 ! A8    A(2,4,9)              119.9883         estimate D2E/DX2                !
 ! A9    A(6,4,9)              120.9825         estimate D2E/DX2                !
 ! A10   A(3,5,7)              120.4576         estimate D2E/DX2                !
 ! A11   A(3,5,10)             119.3614         estimate D2E/DX2                !
 ! A12   A(7,5,10)             120.1809         estimate D2E/DX2                !
 ! A13   A(4,6,7)              120.4576         estimate D2E/DX2                !
 ! A14   A(4,6,11)             119.3614         estimate D2E/DX2                !
 ! A15   A(7,6,11)             120.1809         estimate D2E/DX2                !
 ! A16   A(5,7,6)              119.7351         estimate D2E/DX2                !
 ! A17   A(5,7,12)             120.1324         estimate D2E/DX2                !
 ! A18   A(6,7,12)             120.1324         estimate D2E/DX2                !
 ! D1    D(1,2,3,5)            180.0            estimate D2E/DX2                !
 ! D2    D(1,2,3,8)              0.0            estimate D2E/DX2                !
 ! D3    D(4,2,3,5)              0.0            estimate D2E/DX2                !
 ! D4    D(4,2,3,8)            180.0            estimate D2E/DX2                !
 ! D5    D(1,2,4,6)            180.0            estimate D2E/DX2                !
 ! D6    D(1,2,4,9)              0.0            estimate D2E/DX2                !
 ! D7    D(3,2,4,6)              0.0            estimate D2E/DX2                !
 ! D8    D(3,2,4,9)            180.0            estimate D2E/DX2                !
 ! D9    D(2,3,5,7)              0.0            estimate D2E/DX2                !
 ! D10   D(2,3,5,10)           180.0            estimate D2E/DX2                !
 ! D11   D(8,3,5,7)            180.0            estimate D2E/DX2                !
 ! D12   D(8,3,5,10)             0.0            estimate D2E/DX2                !
 ! D13   D(2,4,6,7)              0.0            estimate D2E/DX2                !
 ! D14   D(2,4,6,11)           180.0            estimate D2E/DX2                !
 ! D15   D(9,4,6,7)            180.0            estimate D2E/DX2                !
 ! D16   D(9,4,6,11)             0.0            estimate D2E/DX2                !
 ! D17   D(3,5,7,6)              0.0            estimate D2E/DX2                !
 ! D18   D(3,5,7,12)           180.0            estimate D2E/DX2                !
 ! D19   D(10,5,7,6)           180.0            estimate D2E/DX2                !
 ! D20   D(10,5,7,12)            0.0            estimate D2E/DX2                !
 ! D21   D(4,6,7,5)              0.0            estimate D2E/DX2                !
 ! D22   D(4,6,7,12)           180.0            estimate D2E/DX2                !
 ! D23   D(11,6,7,5)           180.0            estimate D2E/DX2                !
 ! D24   D(11,6,7,12)            0.0            estimate D2E/DX2                !
 --------------------------------------------------------------------------------
 Trust Radius=3.00D-01 FncErr=1.00D-07 GrdErr=1.00D-06 EigMax=2.50D+02 EigMin=1.00D-04
 Number of steps in this run=     64 maximum allowed number of steps=    100.
 GradGradGradGradGradGradGradGradGradGradGradGradGradGradGradGradGradGrad

                          Input orientation:                          
 ---------------------------------------------------------------------
 Center     Atomic      Atomic             Coordinates (Angstroms)
 Number     Number       Type             X           Y           Z
 ---------------------------------------------------------------------
      1         17           0        0.000000    0.000000    2.254235
      2          6           0        0.000000    0.000000    0.502974
      3          6           0        0.000000    1.209983   -0.177547
      4          6           0        0.000000   -1.209983   -0.177547
      5          6           0        0.000000    1.202094   -1.567571
      6          6           0        0.000000   -1.202094   -1.567571
      7          6           0        0.000000    0.000000   -2.265310
      8          1           0        0.000000    2.138969    0.373109
      9          1           0        0.000000   -2.138969    0.373109
     10          1           0        0.000000    2.141644   -2.103190
     11          1           0        0.000000   -2.141644   -2.103190
     12          1           0        0.000000    0.000000   -3.346394
 ---------------------------------------------------------------------
                    Distance matrix (angstroms):
                    1          2          3          4          5
     1  Cl   0.000000
     2  C    1.751261   0.000000
     3  C    2.716178   1.388225   0.000000
     4  C    2.716178   1.388225   2.419966   0.000000
     5  C    4.006399   2.394199   1.390046   2.783933   0.000000
     6  C    4.006399   2.394199   2.783933   1.390046   2.404188
     7  C    4.519545   2.768284   2.413051   2.413051   1.389917
     8  H    2.848477   2.142908   1.079925   3.393921   2.154988
     9  H    2.848477   2.142908   3.393921   1.079925   3.863799
    10  H    4.855285   3.373237   2.139180   3.865424   1.081500
    11  H    4.855285   3.373237   3.865424   2.139180   3.386366
    12  H    5.600629   3.849368   3.391998   3.391998   2.146914
                    6          7          8          9         10
     6  C    0.000000
     7  C    1.389917   0.000000
     8  H    3.863799   3.396534   0.000000
     9  H    2.154988   3.396534   4.277938   0.000000
    10  H    3.386366   2.147771   2.476300   4.945271   0.000000
    11  H    1.081500   2.147771   4.945271   2.476300   4.283288
    12  H    2.146914   1.081084   4.290675   4.290675   2.476327
                   11         12
    11  H    0.000000
    12  H    2.476327   0.000000
 Stoichiometry    C6H5Cl
 Framework group  C2V[C2(HCCCl),SGV(C4H4)]
 Deg. of freedom    11
 Full point group                 C2V     NOp   4
 Largest Abelian subgroup         C2V     NOp   4
 Largest concise Abelian subgroup C2      NOp   2
                         Standard orientation:                         
 ---------------------------------------------------------------------
 Center     Atomic      Atomic             Coordinates (Angstroms)
 Number     Number       Type             X           Y           Z
 ---------------------------------------------------------------------
      1         17           0        0.000000    0.000000    2.254235
      2          6           0        0.000000    0.000000    0.502974
      3          6           0        0.000000    1.209983   -0.177547
      4          6           0       -0.000000   -1.209983   -0.177547
      5          6           0        0.000000    1.202094   -1.567571
      6          6           0       -0.000000   -1.202094   -1.567571
      7          6           0        0.000000   -0.000000   -2.265310
      8          1           0        0.000000    2.138969    0.373109
      9          1           0       -0.000000   -2.138969    0.373109
     10          1           0        0.000000    2.141644   -2.103190
     11          1           0       -0.000000   -2.141644   -2.103190
     12          1           0        0.000000   -0.000000   -3.346394
 ---------------------------------------------------------------------
 Rotational constants (GHZ):           5.7243930           1.5704123           1.2323368
 General basis read from cards:  (5D, 7F)
 There are   128 symmetry adapted cartesian basis functions of A1  symmetry.
 There are    40 symmetry adapted cartesian basis functions of A2  symmetry.
 There are    58 symmetry adapted cartesian basis functions of B1  symmetry.
 There are    98 symmetry adapted cartesian basis functions of B2  symmetry.
 There are   108 symmetry adapted basis functions of A1  symmetry.
 There are    38 symmetry adapted basis functions of A2  symmetry.
 There are    53 symmetry adapted basis functions of B1  symmetry.
 There are    85 symmetry adapted basis functions of B2  symmetry.
   284 basis functions,   466 primitive gaussians,   324 cartesian basis functions
    29 alpha electrons       29 beta electrons
       nuclear repulsion energy       315.9417344640 Hartrees.
 NAtoms=   12 NActive=   12 NUniq=    8 SFac= 2.25D+00 NAtFMM=   60 NAOKFM=F Big=F
 Integral buffers will be    131072 words long.
 Raffenetti 2 integral format.
 Two-electron integral symmetry is turned on.
 One-electron integrals computed using PRISM.
 NBasis=   284 RedAO= T EigKep=  2.47D-05  NBF=   108    38    53    85
 NBsUse=   284 1.00D-06 EigRej= -1.00D+00 NBFU=   108    38    53    85
 ExpMin= 7.42D-02 ExpMax= 1.54D+05 ExpMxC= 1.49D+03 IAcc=3 IRadAn=         5 AccDes= 0.00D+00
 Harris functional with IExCor=  402 and IRadAn=       5 diagonalized for initial guess.
 HarFok:  IExCor=  402 AccDes= 0.00D+00 IRadAn=         5 IDoV= 1 UseB2=F ITyADJ=14
 ICtDFT=  3500011 ScaDFX=  1.000000  1.000000  1.000000  1.000000
 FoFCou: FMM=F IPFlag=           0 FMFlag=      100000 FMFlg1=           0
         NFxFlg=           0 DoJE=T BraDBF=F KetDBF=T FulRan=T
         wScrn=  0.000000 ICntrl=       500 IOpCl=  0 I1Cent=   200000004 NGrid=           0
         NMat0=    1 NMatS0=      1 NMatT0=    0 NMatD0=    1 NMtDS0=    0 NMtDT0=    0
 Petite list used in FoFCou.
 Initial guess orbital symmetries:
       Occupied  (A1) (A1) (B2) (A1) (A1) (B2) (A1) (A1) (A1) (B2)
                 (B1) (A1) (A1) (B2) (A1) (B2) (A1) (A1) (B2) (A1)
                 (B2) (A1) (B1) (B2) (A1) (B1) (A2) (B2) (B1)
       Virtual   (A2) (B1) (A1) (A1) (B1) (B2) (A1) (B2) (A1) (A1)
                 (A1) (B1) (B2) (B2) (A1) (A2) (B1) (A1) (B2) (A1)
                 (B2) (A1) (A2) (B2) (A1) (B1) (B2) (A1) (A1) (B2)
                 (B1) (B2) (A1) (B1) (A1) (A1) (B2) (A1) (B2) (B2)
                 (B1) (A1) (B2) (A1) (B2) (A2) (A1) (B2) (A1) (B1)
                 (A1) (A2) (B2) (A2) (A1) (B1) (A2) (B2) (A1) (A1)
                 (B2) (B1) (A1) (A1) (A1) (B1) (B2) (B2) (A2) (B1)
                 (A1) (B2) (A1) (B1) (A1) (B1) (A2) (B1) (A2) (B2)
                 (A1) (B2) (A1) (B2) (B1) (B2) (A2) (A1) (B1) (B2)
                 (B1) (A2) (A1) (A1) (B1) (A2) (B2) (A1) (A1) (B2)
                 (A1) (B2) (A1) (A1) (B2) (A2) (A1) (B2) (A1) (B2)
                 (B1) (B2) (A1) (A1) (B2) (B1) (B2) (A1) (B2) (A2)
                 (B1) (A1) (A1) (B2) (B2) (B1) (A1) (B2) (A1) (A1)
                 (B2) (A2) (A1) (B2) (B1) (B1) (A2) (B2) (A1) (A2)
                 (B1) (B1) (B1) (A1) (B2) (A2) (A1) (B2) (B2) (A2)
                 (A1) (A1) (B2) (B1) (A1) (A1) (A2) (A1) (B2) (A1)
                 (B1) (A1) (B2) (B2) (B1) (A2) (A1) (A2) (A1) (B1)
                 (B2) (A2) (A1) (B1) (B1) (B2) (A1) (B2) (A2) (A1)
                 (B1) (B2) (A2) (B2) (A2) (A1) (A1) (B1) (B2) (A2)
                 (A1) (B1) (B1) (A2) (B1) (B2) (A2) (A1) (B1) (B1)
                 (A2) (B2) (A1) (B2) (A2) (B1) (A2) (B1) (A1) (B2)
                 (A2) (A1) (B1) (A1) (B2) (A1) (B2) (A1) (B1) (B2)
                 (B2) (B2) (A1) (B2) (A1) (B1) (A1) (A2) (A2) (A1)
                 (A1) (B1) (B2) (A1) (B2) (B2) (A2) (B2) (A1) (A1)
                 (B2) (B1) (B2) (A1) (A1) (B2) (A1) (B2) (A1) (A1)
                 (A1) (B2) (B2) (A1) (A1)
 The electronic state of the initial guess is 1-A1.
 Requested convergence on RMS density matrix=1.00D-08 within 128 cycles.
 Requested convergence on MAX density matrix=1.00D-06.
 Requested convergence on             energy=1.00D-06.
 No special actions if energy rises.
 Integral accuracy reduced to 1.0D-05 until final iterations.
 Initial convergence to 1.0D-05 achieved.  Increase integral accuracy.
 SCF Done:  E(RB3LYP) =  -691.974556791     A.U. after   13 cycles
            NFock= 13  Conv=0.83D-08     -V/T= 2.0019

 **********************************************************************

            Population analysis using the SCF Density.

 **********************************************************************

 Orbital symmetries:
       Occupied  (A1) (A1) (B2) (A1) (A1) (B2) (A1) (A1) (A1) (B1)
                 (B2) (A1) (A1) (B2) (A1) (B2) (A1) (A1) (B2) (A1)
                 (B2) (A1) (B1) (A1) (B2) (B1) (B2) (A2) (B1)
       Virtual   (A2) (B1) (A1) (A1) (B2) (A1) (B2) (A1) (B1) (A1)
                 (A1) (B1) (B2) (A2) (B2) (A1) (B1) (B2) (A1) (A1)
                 (A2) (B2) (B1) (A1) (A1) (B2) (A1) (B2) (A1) (B2)
                 (B1) (B1) (B2) (A1) (A1) (A1) (B2) (A1) (B2) (B2)
                 (B1) (A1) (A2) (B2) (A1) (B2) (A1) (B2) (B1) (A1)
                 (A1) (B2) (A2) (A1) (A2) (B1) (A2) (B2) (A1) (B1)
                 (A1) (B2) (A1) (A1) (A1) (B1) (B2) (B2) (A1) (B1)
                 (A2) (A1) (B2) (A1) (B1) (A2) (B1) (B2) (A2) (A1)
                 (B1) (B2) (A1) (B2) (B1) (B2) (A2) (A1) (B1) (B2)
                 (A2) (B1) (A1) (A1) (B1) (B2) (A2) (A1) (A1) (B2)
                 (A1) (B2) (A1) (A1) (A2) (A1) (B2) (A1) (B2) (B2)
                 (B1) (B2) (A1) (B1) (B2) (A1) (A2) (B2) (A1) (B1)
                 (B2) (A1) (A1) (B2) (B1) (B2) (A1) (B2) (A1) (A1)
                 (B2) (A1) (B2) (A2) (B1) (B1) (A2) (B2) (A1) (A2)
                 (B1) (B1) (B1) (A1) (B2) (A2) (A1) (B2) (A2) (B2)
                 (A1) (A1) (B1) (B2) (A1) (A1) (A2) (A1) (B2) (A1)
                 (B1) (B2) (A1) (B2) (A2) (B1) (A2) (A1) (A1) (B1)
                 (B2) (A2) (A1) (B1) (B1) (B2) (A1) (B2) (A2) (A1)
                 (B1) (B2) (B2) (A1) (A2) (A2) (A1) (B2) (B1) (A2)
                 (B1) (A1) (B1) (A2) (B2) (A2) (B1) (A1) (B1) (B1)
                 (A2) (B2) (A1) (B2) (A2) (B1) (A1) (A2) (B1) (B2)
                 (A1) (A2) (B1) (A1) (B2) (A1) (B2) (B1) (A1) (B2)
                 (B2) (A1) (B2) (B2) (B1) (A1) (A1) (A2) (A2) (A1)
                 (A1) (B1) (B2) (A1) (B2) (B2) (A2) (B2) (A1) (A1)
                 (B2) (B1) (B2) (A1) (A1) (B2) (A1) (B2) (A1) (A1)
                 (A1) (B2) (B2) (A1) (A1)
 The electronic state is 1-A1.
 Alpha  occ. eigenvalues -- -101.51478 -10.24165 -10.19156 -10.19156 -10.19068
 Alpha  occ. eigenvalues --  -10.19064 -10.18687  -9.45996  -7.22145  -7.21293
 Alpha  occ. eigenvalues --   -7.21256  -0.89830  -0.84355  -0.76710  -0.74215
 Alpha  occ. eigenvalues --   -0.62804  -0.60924  -0.53544  -0.47855  -0.47507
 Alpha  occ. eigenvalues --   -0.44259  -0.43943  -0.40603  -0.37139  -0.37013
 Alpha  occ. eigenvalues --   -0.34221  -0.31852  -0.27490  -0.25671
 Alpha virt. eigenvalues --   -0.03028  -0.02815   0.00446   0.03502   0.03594
 Alpha virt. eigenvalues --    0.05127   0.07248   0.07377   0.11929   0.12638
 Alpha virt. eigenvalues --    0.15360   0.15974   0.16539   0.19098   0.19621
 Alpha virt. eigenvalues --    0.19845   0.20574   0.22548   0.23995   0.25925
 Alpha virt. eigenvalues --    0.26313   0.27866   0.28044   0.28282   0.29228
 Alpha virt. eigenvalues --    0.29567   0.31360   0.32708   0.34103   0.34303
 Alpha virt. eigenvalues --    0.34377   0.35713   0.35954   0.37053   0.40146
 Alpha virt. eigenvalues --    0.42662   0.44240   0.45175   0.47089   0.51156
 Alpha virt. eigenvalues --    0.51930   0.53941   0.56614   0.58855   0.59635
 Alpha virt. eigenvalues --    0.60175   0.63434   0.64375   0.66704   0.67836
 Alpha virt. eigenvalues --    0.69920   0.73721   0.75276   0.76123   0.78862
 Alpha virt. eigenvalues --    0.80134   0.83877   0.86397   0.87431   0.96414
 Alpha virt. eigenvalues --    0.96694   0.97844   0.98374   0.98896   1.03124
 Alpha virt. eigenvalues --    1.06250   1.08065   1.09409   1.10391   1.12423
 Alpha virt. eigenvalues --    1.12660   1.13484   1.14804   1.19260   1.20218
 Alpha virt. eigenvalues --    1.23144   1.24340   1.27119   1.28538   1.28746
 Alpha virt. eigenvalues --    1.28822   1.31148   1.35728   1.38256   1.41302
 Alpha virt. eigenvalues --    1.43804   1.44095   1.47074   1.52687   1.55305
 Alpha virt. eigenvalues --    1.56309   1.57006   1.58323   1.58751   1.60994
 Alpha virt. eigenvalues --    1.63278   1.63361   1.67943   1.71942   1.74529
 Alpha virt. eigenvalues --    1.77324   1.85689   1.86585   1.87838   1.89136
 Alpha virt. eigenvalues --    1.89337   1.93296   1.94787   1.94853   1.95375
 Alpha virt. eigenvalues --    2.00048   2.05316   2.08585   2.11977   2.14336
 Alpha virt. eigenvalues --    2.18063   2.18992   2.19047   2.19312   2.20008
 Alpha virt. eigenvalues --    2.22479   2.26509   2.29184   2.30746   2.33353
 Alpha virt. eigenvalues --    2.35309   2.41006   2.54576   2.59620   2.64712
 Alpha virt. eigenvalues --    2.68927   2.79095   2.80722   2.83437   2.92367
 Alpha virt. eigenvalues --    3.13546   3.15126   3.17993   3.18097   3.21793
 Alpha virt. eigenvalues --    3.22664   3.26393   3.30473   3.32656   3.33725
 Alpha virt. eigenvalues --    3.35588   3.43048   3.44400   3.51807   3.51991
 Alpha virt. eigenvalues --    3.53197   3.54979   3.56843   3.59110   3.60169
 Alpha virt. eigenvalues --    3.64792   3.64959   3.69763   3.74958   3.79739
 Alpha virt. eigenvalues --    3.80873   3.83677   3.83821   3.91064   3.94249
 Alpha virt. eigenvalues --    3.95591   3.98322   3.98690   4.01757   4.02307
 Alpha virt. eigenvalues --    4.04444   4.05463   4.08054   4.10671   4.12494
 Alpha virt. eigenvalues --    4.15230   4.16387   4.17958   4.18397   4.19477
 Alpha virt. eigenvalues --    4.23094   4.23471   4.25187   4.28036   4.28580
 Alpha virt. eigenvalues --    4.28975   4.31102   4.32756   4.33582   4.34396
 Alpha virt. eigenvalues --    4.35068   4.35576   4.42240   4.43055   4.46307
 Alpha virt. eigenvalues --    4.46310   4.46957   4.49612   4.52661   4.53505
 Alpha virt. eigenvalues --    4.53595   4.55967   4.57435   4.62719   4.64424
 Alpha virt. eigenvalues --    4.71811   4.75130   4.75226   4.75664   4.77056
 Alpha virt. eigenvalues --    4.81101   4.81840   4.87549   4.94332   4.95539
 Alpha virt. eigenvalues --    4.97541   5.00875   5.03424   5.04221   5.04787
 Alpha virt. eigenvalues --    5.11832   5.13820   5.15564   5.24230   5.25538
 Alpha virt. eigenvalues --    5.26022   5.30124   5.31659   5.36562   5.36619
 Alpha virt. eigenvalues --    5.43207   5.44582   5.46902   5.50652   5.51324
 Alpha virt. eigenvalues --    5.52628   5.55611   5.66526   5.70042   5.72474
 Alpha virt. eigenvalues --    5.73515   5.82087   5.95343   5.95695   6.01562
 Alpha virt. eigenvalues --    6.02386   6.21214   6.28979   6.34069   6.45250
 Alpha virt. eigenvalues --    6.60643   6.65856   7.07962  11.11927  33.27360
          Condensed to atoms (all electrons):
               1          2          3          4          5          6
     1  Cl  16.980681   0.249851  -0.066549  -0.066549   0.017580   0.017580
     2  C    0.249851   4.980202   0.405362   0.405362   0.010835   0.010835
     3  C   -0.066549   0.405362   4.961936   0.039482   0.401153  -0.123426
     4  C   -0.066549   0.405362   0.039482   4.961936  -0.123426   0.401153
     5  C    0.017580   0.010835   0.401153  -0.123426   4.922092   0.008320
     6  C    0.017580   0.010835  -0.123426   0.401153   0.008320   4.922092
     7  C   -0.001661  -0.077771  -0.025087  -0.025087   0.444168   0.444168
     8  H    0.003992  -0.068548   0.462363   0.016837  -0.050179  -0.007409
     9  H    0.003992  -0.068548   0.016837   0.462363  -0.007409  -0.050179
    10  H   -0.000480   0.015774  -0.051918  -0.004645   0.457465   0.014864
    11  H   -0.000480   0.015774  -0.004645  -0.051918   0.014864   0.457465
    12  H    0.000031  -0.005878   0.017028   0.017028  -0.058728  -0.058728
               7          8          9         10         11         12
     1  Cl  -0.001661   0.003992   0.003992  -0.000480  -0.000480   0.000031
     2  C   -0.077771  -0.068548  -0.068548   0.015774   0.015774  -0.005878
     3  C   -0.025087   0.462363   0.016837  -0.051918  -0.004645   0.017028
     4  C   -0.025087   0.016837   0.462363  -0.004645  -0.051918   0.017028
     5  C    0.444168  -0.050179  -0.007409   0.457465   0.014864  -0.058728
     6  C    0.444168  -0.007409  -0.050179   0.014864   0.457465  -0.058728
     7  C    4.868384   0.014821   0.014821  -0.057072  -0.057072   0.462107
     8  H    0.014821   0.601175  -0.000007  -0.011374   0.000105   0.000113
     9  H    0.014821  -0.000007   0.601175   0.000105  -0.011374   0.000113
    10  H   -0.057072  -0.011374   0.000105   0.622074  -0.000114  -0.010830
    11  H   -0.057072   0.000105  -0.011374  -0.000114   0.622074  -0.010830
    12  H    0.462107   0.000113   0.000113  -0.010830  -0.010830   0.622602
 Mulliken charges:
               1
     1  Cl  -0.137988
     2  C    0.126749
     3  C   -0.032536
     4  C   -0.032536
     5  C   -0.036734
     6  C   -0.036734
     7  C   -0.004719
     8  H    0.038110
     9  H    0.038110
    10  H    0.026152
    11  H    0.026152
    12  H    0.025971
 Sum of Mulliken charges =  -0.00000
 Mulliken charges with hydrogens summed into heavy atoms:
               1
     1  Cl  -0.137988
     2  C    0.126749
     3  C    0.005575
     4  C    0.005575
     5  C   -0.010582
     6  C   -0.010582
     7  C    0.021252
 Electronic spatial extent (au):  <R**2>=            897.8385
 Charge=             -0.0000 electrons
 Dipole moment (field-independent basis, Debye):
    X=              0.0000    Y=              0.0000    Z=             -1.7757  Tot=              1.7757
 Quadrupole moment (field-independent basis, Debye-Ang):
   XX=            -51.3870   YY=            -42.7921   ZZ=            -46.5740
   XY=              0.0000   XZ=              0.0000   YZ=             -0.0000
 Traceless Quadrupole moment (field-independent basis, Debye-Ang):
   XX=             -4.4693   YY=              4.1256   ZZ=              0.3437
   XY=              0.0000   XZ=              0.0000   YZ=             -0.0000
 Octapole moment (field-independent basis, Debye-Ang**2):
  XXX=              0.0000  YYY=              0.0000  ZZZ=             -3.5744  XYY=              0.0000
  XXY=              0.0000  XXZ=              6.9537  XZZ=              0.0000  YZZ=             -0.0000
  YYZ=             -0.7316  XYZ=             -0.0000
 Hexadecapole moment (field-independent basis, Debye-Ang**3):
 XXXX=            -61.4780 YYYY=           -280.4345 ZZZZ=           -796.1894 XXXY=             -0.0000
 XXXZ=             -0.0000 YYYX=             -0.0000 YYYZ=              0.0000 ZZZX=             -0.0000
 ZZZY=              0.0000 XXYY=            -68.2759 XXZZ=           -163.1771 YYZZ=           -183.3835
 XXYZ=             -0.0000 YYXZ=             -0.0000 ZZXY=             -0.0000
 N-N= 3.159417344640D+02 E-N=-2.264258519282D+03  KE= 6.906904420475D+02
 Symmetry A1   KE= 5.135981305265D+02
 Symmetry A2   KE= 2.252540286047D+00
 Symmetry B1   KE= 5.027745295983D+01
 Symmetry B2   KE= 1.245623182751D+02
 Calling FoFJK, ICntrl=      2127 FMM=F ISym2X=1 I1Cent= 0 IOpClX= 0 NMat=1 NMatS=1 NMatT=0.
 ***** Axes restored to original set *****
 -------------------------------------------------------------------
 Center     Atomic                   Forces (Hartrees/Bohr)
 Number     Number              X              Y              Z
 -------------------------------------------------------------------
      1       17          -0.000000000   -0.000000000   -0.000133007
      2        6          -0.000000000   -0.000000000    0.000503609
      3        6           0.000000000   -0.000026256    0.000036466
      4        6           0.000000000    0.000026256    0.000036466
      5        6           0.000000000    0.000309548   -0.000024798
      6        6           0.000000000   -0.000309548   -0.000024798
      7        6          -0.000000000   -0.000000000   -0.000261476
      8        1           0.000000000    0.000146267   -0.000018048
      9        1           0.000000000   -0.000146267   -0.000018048
     10        1           0.000000000    0.000059272   -0.000013594
     11        1           0.000000000   -0.000059272   -0.000013594
     12        1          -0.000000000    0.000000000   -0.000069178
 -------------------------------------------------------------------
 Cartesian Forces:  Max     0.000503609 RMS     0.000128259

 GradGradGradGradGradGradGradGradGradGradGradGradGradGradGradGradGradGrad
 Berny optimization.
 FormGI is forming the generalized inverse of G from B-inverse, IUseBI=4.
 Internal  Forces:  Max     0.000329896 RMS     0.000102664
 Search for a local minimum.
 Step number   1 out of a maximum of   64
 All quantities printed in internal units (Hartrees-Bohrs-Radians)
 Mixed Optimization -- En-DIIS/RFO-DIIS
 Second derivative matrix not updated -- first step.
 ITU=  0
     Eigenvalues ---    0.02221   0.02221   0.02222   0.02222   0.02226
     Eigenvalues ---    0.02231   0.02234   0.02240   0.02245   0.16000
     Eigenvalues ---    0.16000   0.16000   0.16000   0.16000   0.22000
     Eigenvalues ---    0.22000   0.23497   0.25000   0.30366   0.35814
     Eigenvalues ---    0.35814   0.35864   0.36003   0.36003   0.42867
     Eigenvalues ---    0.43079   0.47311   0.47329   0.47484   0.47581
 RFO step:  Lambda=-1.46540893D-06 EMin= 2.22114228D-02
 Linear search not attempted -- first point.
 Iteration  1 RMS(Cart)=  0.00039156 RMS(Int)=  0.00000008
 Iteration  2 RMS(Cart)=  0.00000010 RMS(Int)=  0.00000000
 ClnCor:  largest displacement from symmetrization is 4.59D-12 for atom     1.
 Variable       Old X    -DE/DX   Delta X   Delta X   Delta X     New X
                                 (Linear)    (Quad)   (Total)
    R1        3.30940  -0.00013   0.00000  -0.00044  -0.00044   3.30897
    R2        2.62336   0.00027   0.00000   0.00055   0.00055   2.62392
    R3        2.62336   0.00027   0.00000   0.00055   0.00055   2.62392
    R4        2.62681   0.00020   0.00000   0.00043   0.00043   2.62724
    R5        2.04076   0.00012   0.00000   0.00032   0.00032   2.04109
    R6        2.62681   0.00020   0.00000   0.00043   0.00043   2.62724
    R7        2.04076   0.00012   0.00000   0.00032   0.00032   2.04109
    R8        2.62656   0.00033   0.00000   0.00071   0.00071   2.62727
    R9        2.04374   0.00006   0.00000   0.00016   0.00016   2.04390
   R10        2.62656   0.00033   0.00000   0.00071   0.00071   2.62727
   R11        2.04374   0.00006   0.00000   0.00016   0.00016   2.04390
   R12        2.04295   0.00007   0.00000   0.00019   0.00019   2.04315
    A1        2.08313   0.00004   0.00000   0.00020   0.00020   2.08333
    A2        2.08313   0.00004   0.00000   0.00020   0.00020   2.08333
    A3        2.11693  -0.00009   0.00000  -0.00041  -0.00041   2.11652
    A4        2.07745   0.00008   0.00000   0.00033   0.00033   2.07778
    A5        2.09419   0.00005   0.00000   0.00041   0.00041   2.09460
    A6        2.11154  -0.00013   0.00000  -0.00074  -0.00074   2.11080
    A7        2.07745   0.00008   0.00000   0.00033   0.00033   2.07778
    A8        2.09419   0.00005   0.00000   0.00041   0.00041   2.09460
    A9        2.11154  -0.00013   0.00000  -0.00074  -0.00074   2.11080
   A10        2.10238  -0.00002   0.00000  -0.00007  -0.00007   2.10231
   A11        2.08325  -0.00001   0.00000  -0.00008  -0.00008   2.08317
   A12        2.09755   0.00003   0.00000   0.00015   0.00015   2.09770
   A13        2.10238  -0.00002   0.00000  -0.00007  -0.00007   2.10231
   A14        2.08325  -0.00001   0.00000  -0.00008  -0.00008   2.08317
   A15        2.09755   0.00003   0.00000   0.00015   0.00015   2.09770
   A16        2.08977  -0.00003   0.00000  -0.00010  -0.00010   2.08967
   A17        2.09671   0.00002   0.00000   0.00005   0.00005   2.09676
   A18        2.09671   0.00002   0.00000   0.00005   0.00005   2.09676
    D1        3.14159   0.00000   0.00000   0.00000   0.00000   3.14159
    D2       -0.00000   0.00000   0.00000   0.00000   0.00000   0.00000
    D3       -0.00000   0.00000   0.00000   0.00000   0.00000   0.00000
    D4        3.14159   0.00000   0.00000   0.00000   0.00000   3.14159
    D5        3.14159  -0.00000   0.00000  -0.00000   0.00000   3.14159
    D6        0.00000  -0.00000   0.00000  -0.00000   0.00000   0.00000
    D7        0.00000  -0.00000   0.00000  -0.00000   0.00000   0.00000
    D8        3.14159  -0.00000   0.00000  -0.00000   0.00000   3.14159
    D9       -0.00000  -0.00000   0.00000  -0.00000   0.00000   0.00000
   D10        3.14159  -0.00000   0.00000  -0.00000   0.00000   3.14159
   D11        3.14159  -0.00000   0.00000  -0.00000   0.00000   3.14159
   D12        0.00000  -0.00000   0.00000  -0.00000   0.00000   0.00000
   D13        0.00000  -0.00000   0.00000  -0.00000   0.00000   0.00000
   D14        3.14159   0.00000   0.00000  -0.00000   0.00000   3.14159
   D15        3.14159   0.00000   0.00000   0.00000   0.00000   3.14159
   D16       -0.00000   0.00000   0.00000   0.00000   0.00000   0.00000
   D17        0.00000  -0.00000   0.00000  -0.00000   0.00000   0.00000
   D18        3.14159  -0.00000   0.00000  -0.00000   0.00000   3.14159
   D19        3.14159  -0.00000   0.00000  -0.00000   0.00000   3.14159
   D20       -0.00000  -0.00000   0.00000  -0.00000   0.00000   0.00000
   D21       -0.00000   0.00000   0.00000   0.00000   0.00000   0.00000
   D22        3.14159   0.00000   0.00000   0.00000   0.00000   3.14159
   D23        3.14159   0.00000   0.00000   0.00000   0.00000   3.14159
   D24        0.00000   0.00000   0.00000   0.00000   0.00000   0.00000
         Item               Value     Threshold  Converged?
 Maximum Force            0.000330     0.000450     YES
 RMS     Force            0.000103     0.000300     YES
 Maximum Displacement     0.001137     0.001800     YES
 RMS     Displacement     0.000392     0.001200     YES
 Predicted change in Energy=-7.327048D-07
 Optimization completed.
    -- Stationary point found.
                           ----------------------------
                           !   Optimized Parameters   !
                           ! (Angstroms and Degrees)  !
 --------------------------                            --------------------------
 ! Name  Definition              Value          Derivative Info.                !
 --------------------------------------------------------------------------------
 ! R1    R(1,2)                  1.7513         -DE/DX =   -0.0001              !
 ! R2    R(2,3)                  1.3882         -DE/DX =    0.0003              !
 ! R3    R(2,4)                  1.3882         -DE/DX =    0.0003              !
 ! R4    R(3,5)                  1.39           -DE/DX =    0.0002              !
 ! R5    R(3,8)                  1.0799         -DE/DX =    0.0001              !
 ! R6    R(4,6)                  1.39           -DE/DX =    0.0002              !
 ! R7    R(4,9)                  1.0799         -DE/DX =    0.0001              !
 ! R8    R(5,7)                  1.3899         -DE/DX =    0.0003              !
 ! R9    R(5,10)                 1.0815         -DE/DX =    0.0001              !
 ! R10   R(6,7)                  1.3899         -DE/DX =    0.0003              !
 ! R11   R(6,11)                 1.0815         -DE/DX =    0.0001              !
 ! R12   R(7,12)                 1.0811         -DE/DX =    0.0001              !
 ! A1    A(1,2,3)              119.3544         -DE/DX =    0.0                 !
 ! A2    A(1,2,4)              119.3544         -DE/DX =    0.0                 !
 ! A3    A(3,2,4)              121.2913         -DE/DX =   -0.0001              !
 ! A4    A(2,3,5)              119.0292         -DE/DX =    0.0001              !
 ! A5    A(2,3,8)              119.9883         -DE/DX =    0.0001              !
 ! A6    A(5,3,8)              120.9825         -DE/DX =   -0.0001              !
 ! A7    A(2,4,6)              119.0292         -DE/DX =    0.0001              !
 ! A8    A(2,4,9)              119.9883         -DE/DX =    0.0001              !
 ! A9    A(6,4,9)              120.9825         -DE/DX =   -0.0001              !
 ! A10   A(3,5,7)              120.4576         -DE/DX =    0.0                 !
 ! A11   A(3,5,10)             119.3614         -DE/DX =    0.0                 !
 ! A12   A(7,5,10)             120.1809         -DE/DX =    0.0                 !
 ! A13   A(4,6,7)              120.4576         -DE/DX =    0.0                 !
 ! A14   A(4,6,11)             119.3614         -DE/DX =    0.0                 !
 ! A15   A(7,6,11)             120.1809         -DE/DX =    0.0                 !
 ! A16   A(5,7,6)              119.7351         -DE/DX =    0.0                 !
 ! A17   A(5,7,12)             120.1324         -DE/DX =    0.0                 !
 ! A18   A(6,7,12)             120.1324         -DE/DX =    0.0                 !
 ! D1    D(1,2,3,5)            180.0            -DE/DX =    0.0                 !
 ! D2    D(1,2,3,8)              0.0            -DE/DX =    0.0                 !
 ! D3    D(4,2,3,5)              0.0            -DE/DX =    0.0                 !
 ! D4    D(4,2,3,8)            180.0            -DE/DX =    0.0                 !
 ! D5    D(1,2,4,6)            180.0            -DE/DX =    0.0                 !
 ! D6    D(1,2,4,9)              0.0            -DE/DX =    0.0                 !
 ! D7    D(3,2,4,6)              0.0            -DE/DX =    0.0                 !
 ! D8    D(3,2,4,9)            180.0            -DE/DX =    0.0                 !
 ! D9    D(2,3,5,7)              0.0            -DE/DX =    0.0                 !
 ! D10   D(2,3,5,10)           180.0            -DE/DX =    0.0                 !
 ! D11   D(8,3,5,7)            180.0            -DE/DX =    0.0                 !
 ! D12   D(8,3,5,10)             0.0            -DE/DX =    0.0                 !
 ! D13   D(2,4,6,7)              0.0            -DE/DX =    0.0                 !
 ! D14   D(2,4,6,11)           180.0            -DE/DX =    0.0                 !
 ! D15   D(9,4,6,7)            180.0            -DE/DX =    0.0                 !
 ! D16   D(9,4,6,11)             0.0            -DE/DX =    0.0                 !
 ! D17   D(3,5,7,6)              0.0            -DE/DX =    0.0                 !
 ! D18   D(3,5,7,12)           180.0            -DE/DX =    0.0                 !
 ! D19   D(10,5,7,6)           180.0            -DE/DX =    0.0                 !
 ! D20   D(10,5,7,12)            0.0            -DE/DX =    0.0                 !
 ! D21   D(4,6,7,5)              0.0            -DE/DX =    0.0                 !
 ! D22   D(4,6,7,12)           180.0            -DE/DX =    0.0                 !
 ! D23   D(11,6,7,5)           180.0            -DE/DX =    0.0                 !
 ! D24   D(11,6,7,12)            0.0            -DE/DX =    0.0                 !
 --------------------------------------------------------------------------------
 GradGradGradGradGradGradGradGradGradGradGradGradGradGradGradGradGradGrad

                          Input orientation:                          
 ---------------------------------------------------------------------
 Center     Atomic      Atomic             Coordinates (Angstroms)
 Number     Number       Type             X           Y           Z
 ---------------------------------------------------------------------
      1         17           0       -0.000000    0.000000    2.254235
      2          6           0       -0.000000    0.000000    0.502974
      3          6           0        0.000000    1.209983   -0.177547
      4          6           0       -0.000000   -1.209983   -0.177547
      5          6           0        0.000000    1.202094   -1.567571
      6          6           0       -0.000000   -1.202094   -1.567571
      7          6           0        0.000000    0.000000   -2.265310
      8          1           0        0.000000    2.138969    0.373109
      9          1           0       -0.000000   -2.138969    0.373109
     10          1           0        0.000000    2.141644   -2.103190
     11          1           0       -0.000000   -2.141644   -2.103190
     12          1           0        0.000000    0.000000   -3.346394
 ---------------------------------------------------------------------
                    Distance matrix (angstroms):
                    1          2          3          4          5
     1  Cl   0.000000
     2  C    1.751261   0.000000
     3  C    2.716178   1.388225   0.000000
     4  C    2.716178   1.388225   2.419966   0.000000
     5  C    4.006399   2.394199   1.390046   2.783933   0.000000
     6  C    4.006399   2.394199   2.783933   1.390046   2.404188
     7  C    4.519545   2.768284   2.413051   2.413051   1.389917
     8  H    2.848477   2.142908   1.079925   3.393921   2.154988
     9  H    2.848477   2.142908   3.393921   1.079925   3.863799
    10  H    4.855285   3.373237   2.139180   3.865424   1.081500
    11  H    4.855285   3.373237   3.865424   2.139180   3.386366
    12  H    5.600629   3.849368   3.391998   3.391998   2.146914
                    6          7          8          9         10
     6  C    0.000000
     7  C    1.389917   0.000000
     8  H    3.863799   3.396534   0.000000
     9  H    2.154988   3.396534   4.277938   0.000000
    10  H    3.386366   2.147771   2.476300   4.945271   0.000000
    11  H    1.081500   2.147771   4.945271   2.476300   4.283288
    12  H    2.146914   1.081084   4.290675   4.290675   2.476327
                   11         12
    11  H    0.000000
    12  H    2.476327   0.000000
 Stoichiometry    C6H5Cl
 Framework group  C2V[C2(HCCCl),SGV(C4H4)]
 Deg. of freedom    11
 Full point group                 C2V     NOp   4
 Largest Abelian subgroup         C2V     NOp   4
 Largest concise Abelian subgroup C2      NOp   2
                         Standard orientation:                         
 ---------------------------------------------------------------------
 Center     Atomic      Atomic             Coordinates (Angstroms)
 Number     Number       Type             X           Y           Z
 ---------------------------------------------------------------------
      1         17           0        0.000000   -0.000000    2.254235
      2          6           0        0.000000   -0.000000    0.502974
      3          6           0        0.000000    1.209983   -0.177547
      4          6           0       -0.000000   -1.209983   -0.177547
      5          6           0        0.000000    1.202094   -1.567571
      6          6           0       -0.000000   -1.202094   -1.567571
      7          6           0       -0.000000    0.000000   -2.265310
      8          1           0        0.000000    2.138969    0.373109
      9          1           0       -0.000000   -2.138969    0.373109
     10          1           0        0.000000    2.141644   -2.103190
     11          1           0       -0.000000   -2.141644   -2.103190
     12          1           0       -0.000000    0.000000   -3.346394
 ---------------------------------------------------------------------
 Rotational constants (GHZ):           5.7243930           1.5704123           1.2323368
 1\1\GINC-GAMBA\FOpt\RB3LYP\Gen\C6H5Cl1\IRIKURA\30-Sep-2023\0\\# b3lyp/
 gen opt freq CPHF(Grid=OneStep)\\chlorobenzene, B3LYP/pcseg-2\\0,1\Cl,
 0.,0.,2.254235\C,0.,0.,0.502974\C,0.,1.209983,-0.177547\C,0.,-1.209983
 ,-0.177547\C,0.,1.202094,-1.567571\C,0.,-1.202094,-1.567571\C,0.,0.,-2
 .26531\H,0.,2.138969,0.373109\H,0.,-2.138969,0.373109\H,0.,2.141644,-2
 .10319\H,0.,-2.141644,-2.10319\H,0.,0.,-3.346394\\Version=ES64L-G16Rev
 B.01\State=1-A1\HF=-691.9745568\RMSD=8.295e-09\RMSF=1.283e-04\Dipole=0
 .,0.,-0.6986066\Quadrupole=-3.3228345,3.0673011,0.2555334,0.,0.,0.\PG=
 C02V [C2(H1C1C1Cl1),SGV(C4H4)]\\@


 I am not a vegetarian because I love animals;
 I am a vegetarian because I hate plants.
                               -- A. Whitney Brown
 Job cpu time:       0 days  0 hours  3 minutes 47.7 seconds.
 Elapsed time:       0 days  0 hours  0 minutes 57.0 seconds.
 File lengths (MBytes):  RWF=     50 Int=      0 D2E=      0 Chk=      7 Scr=      1
 Normal termination of Gaussian 16 at Sat Sep 30 22:47:32 2023.
 Link1:  Proceeding to internal job step number  2.
 ------------------------------------------------------------------
 #N Geom=AllCheck Guess=TCheck SCRF=Check GenChk RB3LYP/ChkBas Freq
 ------------------------------------------------------------------
 1/10=4,29=7,30=1,38=1,40=1/1,3;
 2/12=2,40=1/2;
 3/5=7,6=2,11=2,14=-4,25=1,30=1,67=1,70=2,71=2,74=-5,82=7,116=1,140=1/1,2,3;
 4/5=101/1;
 5/5=2,38=6,98=1/2;
 8/6=4,10=90,11=11/1;
 11/6=1,8=1,9=11,15=111,16=1/1,2,10;
 10/6=1,60=-420/2;
 6/7=2,8=2,9=2,10=2,28=1/1;
 7/8=1,10=1,25=1/1,2,3,16;
 1/10=4,30=1/3;
 99//99;
 Structure from the checkpoint file:  "phcl.chk"
 ----------------------------
 chlorobenzene, B3LYP/pcseg-2
 ----------------------------
 Charge =  0 Multiplicity = 1
 Redundant internal coordinates found in file.  (old form).
 Cl,0,0.,0.,2.254235
 C,0,0.,0.,0.502974
 C,0,0.,1.209983,-0.177547
 C,0,0.,-1.209983,-0.177547
 C,0,0.,1.202094,-1.567571
 C,0,0.,-1.202094,-1.567571
 C,0,0.,0.,-2.26531
 H,0,0.,2.138969,0.373109
 H,0,0.,-2.138969,0.373109
 H,0,0.,2.141644,-2.10319
 H,0,0.,-2.141644,-2.10319
 H,0,0.,0.,-3.346394
 Recover connectivity data from disk.

 GradGradGradGradGradGradGradGradGradGradGradGradGradGradGradGradGradGrad
 Berny optimization.
 Initialization pass.
                           ----------------------------
                           !    Initial Parameters    !
                           ! (Angstroms and Degrees)  !
 --------------------------                            --------------------------
 ! Name  Definition              Value          Derivative Info.                !
 --------------------------------------------------------------------------------
 ! R1    R(1,2)                  1.7513         calculate D2E/DX2 analytically  !
 ! R2    R(2,3)                  1.3882         calculate D2E/DX2 analytically  !
 ! R3    R(2,4)                  1.3882         calculate D2E/DX2 analytically  !
 ! R4    R(3,5)                  1.39           calculate D2E/DX2 analytically  !
 ! R5    R(3,8)                  1.0799         calculate D2E/DX2 analytically  !
 ! R6    R(4,6)                  1.39           calculate D2E/DX2 analytically  !
 ! R7    R(4,9)                  1.0799         calculate D2E/DX2 analytically  !
 ! R8    R(5,7)                  1.3899         calculate D2E/DX2 analytically  !
 ! R9    R(5,10)                 1.0815         calculate D2E/DX2 analytically  !
 ! R10   R(6,7)                  1.3899         calculate D2E/DX2 analytically  !
 ! R11   R(6,11)                 1.0815         calculate D2E/DX2 analytically  !
 ! R12   R(7,12)                 1.0811         calculate D2E/DX2 analytically  !
 ! A1    A(1,2,3)              119.3544         calculate D2E/DX2 analytically  !
 ! A2    A(1,2,4)              119.3544         calculate D2E/DX2 analytically  !
 ! A3    A(3,2,4)              121.2913         calculate D2E/DX2 analytically  !
 ! A4    A(2,3,5)              119.0292         calculate D2E/DX2 analytically  !
 ! A5    A(2,3,8)              119.9883         calculate D2E/DX2 analytically  !
 ! A6    A(5,3,8)              120.9825         calculate D2E/DX2 analytically  !
 ! A7    A(2,4,6)              119.0292         calculate D2E/DX2 analytically  !
 ! A8    A(2,4,9)              119.9883         calculate D2E/DX2 analytically  !
 ! A9    A(6,4,9)              120.9825         calculate D2E/DX2 analytically  !
 ! A10   A(3,5,7)              120.4576         calculate D2E/DX2 analytically  !
 ! A11   A(3,5,10)             119.3614         calculate D2E/DX2 analytically  !
 ! A12   A(7,5,10)             120.1809         calculate D2E/DX2 analytically  !
 ! A13   A(4,6,7)              120.4576         calculate D2E/DX2 analytically  !
 ! A14   A(4,6,11)             119.3614         calculate D2E/DX2 analytically  !
 ! A15   A(7,6,11)             120.1809         calculate D2E/DX2 analytically  !
 ! A16   A(5,7,6)              119.7351         calculate D2E/DX2 analytically  !
 ! A17   A(5,7,12)             120.1324         calculate D2E/DX2 analytically  !
 ! A18   A(6,7,12)             120.1324         calculate D2E/DX2 analytically  !
 ! D1    D(1,2,3,5)            180.0            calculate D2E/DX2 analytically  !
 ! D2    D(1,2,3,8)              0.0            calculate D2E/DX2 analytically  !
 ! D3    D(4,2,3,5)              0.0            calculate D2E/DX2 analytically  !
 ! D4    D(4,2,3,8)            180.0            calculate D2E/DX2 analytically  !
 ! D5    D(1,2,4,6)            180.0            calculate D2E/DX2 analytically  !
 ! D6    D(1,2,4,9)              0.0            calculate D2E/DX2 analytically  !
 ! D7    D(3,2,4,6)              0.0            calculate D2E/DX2 analytically  !
 ! D8    D(3,2,4,9)            180.0            calculate D2E/DX2 analytically  !
 ! D9    D(2,3,5,7)              0.0            calculate D2E/DX2 analytically  !
 ! D10   D(2,3,5,10)           180.0            calculate D2E/DX2 analytically  !
 ! D11   D(8,3,5,7)            180.0            calculate D2E/DX2 analytically  !
 ! D12   D(8,3,5,10)             0.0            calculate D2E/DX2 analytically  !
 ! D13   D(2,4,6,7)              0.0            calculate D2E/DX2 analytically  !
 ! D14   D(2,4,6,11)           180.0            calculate D2E/DX2 analytically  !
 ! D15   D(9,4,6,7)            180.0            calculate D2E/DX2 analytically  !
 ! D16   D(9,4,6,11)             0.0            calculate D2E/DX2 analytically  !
 ! D17   D(3,5,7,6)              0.0            calculate D2E/DX2 analytically  !
 ! D18   D(3,5,7,12)           180.0            calculate D2E/DX2 analytically  !
 ! D19   D(10,5,7,6)           180.0            calculate D2E/DX2 analytically  !
 ! D20   D(10,5,7,12)            0.0            calculate D2E/DX2 analytically  !
 ! D21   D(4,6,7,5)              0.0            calculate D2E/DX2 analytically  !
 ! D22   D(4,6,7,12)           180.0            calculate D2E/DX2 analytically  !
 ! D23   D(11,6,7,5)           180.0            calculate D2E/DX2 analytically  !
 ! D24   D(11,6,7,12)            0.0            calculate D2E/DX2 analytically  !
 --------------------------------------------------------------------------------
 Trust Radius=3.00D-01 FncErr=1.00D-07 GrdErr=1.00D-07 EigMax=2.50D+02 EigMin=1.00D-04
 Number of steps in this run=      2 maximum allowed number of steps=      2.
 GradGradGradGradGradGradGradGradGradGradGradGradGradGradGradGradGradGrad

                          Input orientation:                          
 ---------------------------------------------------------------------
 Center     Atomic      Atomic             Coordinates (Angstroms)
 Number     Number       Type             X           Y           Z
 ---------------------------------------------------------------------
      1         17           0       -0.000000    0.000000    2.254235
      2          6           0       -0.000000    0.000000    0.502974
      3          6           0        0.000000    1.209983   -0.177547
      4          6           0       -0.000000   -1.209983   -0.177547
      5          6           0        0.000000    1.202094   -1.567571
      6          6           0       -0.000000   -1.202094   -1.567571
      7          6           0        0.000000    0.000000   -2.265310
      8          1           0        0.000000    2.138969    0.373109
      9          1           0       -0.000000   -2.138969    0.373109
     10          1           0        0.000000    2.141644   -2.103190
     11          1           0       -0.000000   -2.141644   -2.103190
     12          1           0        0.000000    0.000000   -3.346394
 ---------------------------------------------------------------------
                    Distance matrix (angstroms):
                    1          2          3          4          5
     1  Cl   0.000000
     2  C    1.751261   0.000000
     3  C    2.716178   1.388225   0.000000
     4  C    2.716178   1.388225   2.419966   0.000000
     5  C    4.006399   2.394199   1.390046   2.783933   0.000000
     6  C    4.006399   2.394199   2.783933   1.390046   2.404188
     7  C    4.519545   2.768284   2.413051   2.413051   1.389917
     8  H    2.848477   2.142908   1.079925   3.393921   2.154988
     9  H    2.848477   2.142908   3.393921   1.079925   3.863799
    10  H    4.855285   3.373237   2.139180   3.865424   1.081500
    11  H    4.855285   3.373237   3.865424   2.139180   3.386366
    12  H    5.600629   3.849368   3.391998   3.391998   2.146914
                    6          7          8          9         10
     6  C    0.000000
     7  C    1.389917   0.000000
     8  H    3.863799   3.396534   0.000000
     9  H    2.154988   3.396534   4.277938   0.000000
    10  H    3.386366   2.147771   2.476300   4.945271   0.000000
    11  H    1.081500   2.147771   4.945271   2.476300   4.283288
    12  H    2.146914   1.081084   4.290675   4.290675   2.476327
                   11         12
    11  H    0.000000
    12  H    2.476327   0.000000
 Stoichiometry    C6H5Cl
 Framework group  C2V[C2(HCCCl),SGV(C4H4)]
 Deg. of freedom    11
 Full point group                 C2V     NOp   4
 Largest Abelian subgroup         C2V     NOp   4
 Largest concise Abelian subgroup C2      NOp   2
                         Standard orientation:                         
 ---------------------------------------------------------------------
 Center     Atomic      Atomic             Coordinates (Angstroms)
 Number     Number       Type             X           Y           Z
 ---------------------------------------------------------------------
      1         17           0        0.000000    0.000000    2.254235
      2          6           0        0.000000    0.000000    0.502974
      3          6           0        0.000000    1.209983   -0.177547
      4          6           0       -0.000000   -1.209983   -0.177547
      5          6           0        0.000000    1.202094   -1.567571
      6          6           0       -0.000000   -1.202094   -1.567571
      7          6           0       -0.000000   -0.000000   -2.265310
      8          1           0        0.000000    2.138969    0.373109
      9          1           0       -0.000000   -2.138969    0.373109
     10          1           0        0.000000    2.141644   -2.103190
     11          1           0       -0.000000   -2.141644   -2.103190
     12          1           0       -0.000000   -0.000000   -3.346394
 ---------------------------------------------------------------------
 Rotational constants (GHZ):           5.7243930           1.5704123           1.2323368
 Basis read from chk: "phcl.chk" (5D, 7F)
 There are   128 symmetry adapted cartesian basis functions of A1  symmetry.
 There are    40 symmetry adapted cartesian basis functions of A2  symmetry.
 There are    58 symmetry adapted cartesian basis functions of B1  symmetry.
 There are    98 symmetry adapted cartesian basis functions of B2  symmetry.
 There are   108 symmetry adapted basis functions of A1  symmetry.
 There are    38 symmetry adapted basis functions of A2  symmetry.
 There are    53 symmetry adapted basis functions of B1  symmetry.
 There are    85 symmetry adapted basis functions of B2  symmetry.
   284 basis functions,   466 primitive gaussians,   324 cartesian basis functions
    29 alpha electrons       29 beta electrons
       nuclear repulsion energy       315.9417344640 Hartrees.
 NAtoms=   12 NActive=   12 NUniq=    8 SFac= 2.25D+00 NAtFMM=   60 NAOKFM=F Big=F
 Integral buffers will be    131072 words long.
 Raffenetti 2 integral format.
 Two-electron integral symmetry is turned on.
 One-electron integrals computed using PRISM.
 NBasis=   284 RedAO= T EigKep=  2.47D-05  NBF=   108    38    53    85
 NBsUse=   284 1.00D-06 EigRej= -1.00D+00 NBFU=   108    38    53    85
 Initial guess from the checkpoint file:  "phcl.chk"
 B after Tr=     0.000000   -0.000000    0.000000
         Rot=    1.000000   -0.000000    0.000000    0.000000 Ang=   0.00 deg.
 Initial guess orbital symmetries:
       Occupied  (A1) (A1) (B2) (A1) (A1) (B2) (A1) (A1) (A1) (B1)
                 (B2) (A1) (A1) (B2) (A1) (B2) (A1) (A1) (B2) (A1)
                 (B2) (A1) (B1) (A1) (B2) (B1) (B2) (A2) (B1)
       Virtual   (A2) (B1) (A1) (A1) (B2) (A1) (B2) (A1) (B1) (A1)
                 (A1) (B1) (B2) (A2) (B2) (A1) (B1) (B2) (A1) (A1)
                 (A2) (B2) (B1) (A1) (A1) (B2) (A1) (B2) (A1) (B2)
                 (B1) (B1) (B2) (A1) (A1) (A1) (B2) (A1) (B2) (B2)
                 (B1) (A1) (A2) (B2) (A1) (B2) (A1) (B2) (B1) (A1)
                 (A1) (B2) (A2) (A1) (A2) (B1) (A2) (B2) (A1) (B1)
                 (A1) (B2) (A1) (A1) (A1) (B1) (B2) (B2) (A1) (B1)
                 (A2) (A1) (B2) (A1) (B1) (A2) (B1) (B2) (A2) (A1)
                 (B1) (B2) (A1) (B2) (B1) (B2) (A2) (A1) (B1) (B2)
                 (A2) (B1) (A1) (A1) (B1) (B2) (A2) (A1) (A1) (B2)
                 (A1) (B2) (A1) (A1) (A2) (A1) (B2) (A1) (B2) (B2)
                 (B1) (B2) (A1) (B1) (B2) (A1) (A2) (B2) (A1) (B1)
                 (B2) (A1) (A1) (B2) (B1) (B2) (A1) (B2) (A1) (A1)
                 (B2) (A1) (B2) (A2) (B1) (B1) (A2) (B2) (A1) (A2)
                 (B1) (B1) (B1) (A1) (B2) (A2) (A1) (B2) (A2) (B2)
                 (A1) (A1) (B1) (B2) (A1) (A1) (A2) (A1) (B2) (A1)
                 (B1) (B2) (A1) (B2) (A2) (B1) (A2) (A1) (A1) (B1)
                 (B2) (A2) (A1) (B1) (B1) (B2) (A1) (B2) (A2) (A1)
                 (B1) (B2) (B2) (A1) (A2) (A2) (A1) (B2) (B1) (A2)
                 (B1) (A1) (B1) (A2) (B2) (A2) (B1) (A1) (B1) (B1)
                 (A2) (B2) (A1) (B2) (A2) (B1) (A1) (A2) (B1) (B2)
                 (A1) (A2) (B1) (A1) (B2) (A1) (B2) (B1) (A1) (B2)
                 (B2) (A1) (B2) (B2) (B1) (A1) (A1) (A2) (A2) (A1)
                 (A1) (B1) (B2) (A1) (B2) (B2) (A2) (B2) (A1) (A1)
                 (B2) (B1) (B2) (A1) (A1) (B2) (A1) (B2) (A1) (A1)
                 (A1) (B2) (B2) (A1) (A1)
 Requested convergence on RMS density matrix=1.00D-08 within 128 cycles.
 Requested convergence on MAX density matrix=1.00D-06.
 Requested convergence on             energy=1.00D-06.
 No special actions if energy rises.
 SCF Done:  E(RB3LYP) =  -691.974556791     A.U. after    1 cycles
            NFock=  1  Conv=0.86D-08     -V/T= 2.0019
 DoSCS=F DFT=T ScalE2(SS,OS)=  1.000000  1.000000
 Range of M.O.s used for correlation:     1   284
 NBasis=   284 NAE=    29 NBE=    29 NFC=     0 NFV=     0
 NROrb=    284 NOA=    29 NOB=    29 NVA=   255 NVB=   255

 **** Warning!!: The largest alpha MO coefficient is  0.40457602D+02

 Symmetrizing basis deriv contribution to polar:
 IMax=3 JMax=2 DiffMx= 0.00D+00
 G2DrvN: will do    13 centers at a time, making    1 passes.
 Calling FoFCou, ICntrl=  3107 FMM=F I1Cent=   0 AccDes= 0.00D+00.
 End of G2Drv F.D. properties file   721 does not exist.
 End of G2Drv F.D. properties file   722 does not exist.
 End of G2Drv F.D. properties file   788 does not exist.
          IDoAtm=111111111111
          Differentiating once with respect to electric field.
                with respect to dipole field.
          Differentiating once with respect to nuclear coordinates.
 CalDSu exits because no D1Ps are significant.
          There are    27 degrees of freedom in the 1st order CPHF.  IDoFFX=4 NUNeed=    27.
     27 vectors produced by pass  0 Test12= 2.74D-14 3.70D-09 XBig12= 1.26D+02 7.26D+00.
 AX will form    27 AO Fock derivatives at one time.
     27 vectors produced by pass  1 Test12= 2.74D-14 3.70D-09 XBig12= 2.99D+01 1.21D+00.
     27 vectors produced by pass  2 Test12= 2.74D-14 3.70D-09 XBig12= 7.42D-01 1.73D-01.
     27 vectors produced by pass  3 Test12= 2.74D-14 3.70D-09 XBig12= 6.79D-03 1.93D-02.
     27 vectors produced by pass  4 Test12= 2.74D-14 3.70D-09 XBig12= 3.43D-05 9.05D-04.
     27 vectors produced by pass  5 Test12= 2.74D-14 3.70D-09 XBig12= 6.96D-08 4.56D-05.
     17 vectors produced by pass  6 Test12= 2.74D-14 3.70D-09 XBig12= 1.35D-10 1.52D-06.
      3 vectors produced by pass  7 Test12= 2.74D-14 3.70D-09 XBig12= 1.63D-13 5.16D-08.
 InvSVY:  IOpt=1 It=  1 EMax= 3.55D-15
 Solved reduced A of dimension   182 with    27 vectors.
 Isotropic polarizability for W=    0.000000       78.10 Bohr**3.
 End of Minotr F.D. properties file   721 does not exist.
 End of Minotr F.D. properties file   722 does not exist.
 End of Minotr F.D. properties file   788 does not exist.

 **********************************************************************

            Population analysis using the SCF Density.

[...]
 Alpha virt. eigenvalues --    0.71706   0.73301   0.74678   0.75370   0.77292
 Alpha virt. eigenvalues --    0.77797   0.78806   0.80649   0.81029   0.81194
 Alpha virt. eigenvalues --    0.86361   0.87258   0.89106   0.90345   0.91426
 Alpha virt. eigenvalues --    0.91566   0.93602   0.98404   0.98913   1.00037
 Alpha virt. eigenvalues --    1.00245   1.01180   1.01269   1.01689   1.02436
 Alpha virt. eigenvalues --    1.02937   1.05738   1.08110   1.11009   1.12524
 Alpha virt. eigenvalues --    1.18454   1.18969   1.19557   1.20300   1.22563
 Alpha virt. eigenvalues --    1.23434   1.25013   1.25689   1.28370   1.31046
 Alpha virt. eigenvalues --    1.32342   1.32797   1.34255   1.34435   1.35946
 Alpha virt. eigenvalues --    1.37820   1.39018   1.39723   1.42602   1.43365
 Alpha virt. eigenvalues --    1.45324   1.47208   1.47620   1.47990   1.48427
 Alpha virt. eigenvalues --    1.50840   1.51410   1.51906   1.52646   1.53531
 Alpha virt. eigenvalues --    1.54652   1.55285   1.56566   1.57240   1.57825
 Alpha virt. eigenvalues --    1.58543   1.60016   1.65497   1.65625   1.68185
 Alpha virt. eigenvalues --    1.70688   1.71993   1.72710   1.73305   1.73993
 Alpha virt. eigenvalues --    1.75806   1.78253   1.78690   1.79840   1.81223
 Alpha virt. eigenvalues --    1.81370   1.81683   1.84614   1.87159   1.87751
 Alpha virt. eigenvalues --    1.88669   1.90203   1.91291   1.92349   1.92916
 Alpha virt. eigenvalues --    1.93420   1.95406   1.96721   1.98207   1.98696
 Alpha virt. eigenvalues --    1.98867   1.99600   1.99875   2.01076   2.03623
 Alpha virt. eigenvalues --    2.06064   2.07583   2.10145   2.11330   2.11388
 Alpha virt. eigenvalues --    2.12787   2.13123   2.13885   2.15279   2.17205
 Alpha virt. eigenvalues --    2.18510   2.19782   2.20513   2.21780   2.24828
 Alpha virt. eigenvalues --    2.25508   2.27054   2.31720   2.33410   2.36888
 Alpha virt. eigenvalues --    2.38031   2.38952   2.39759   2.39919   2.42125
 Alpha virt. eigenvalues --    2.46668   2.48493   2.49800   2.51511   2.53583
 Alpha virt. eigenvalues --    2.54284   2.54342   2.55330   2.56136   2.56326
 Alpha virt. eigenvalues --    2.58838   2.64529   2.65268   2.65380   2.67605
 Alpha virt. eigenvalues --    2.68375   2.69208   2.71261   2.72315   2.74009
 Alpha virt. eigenvalues --    2.76120   2.78403   2.81197   2.81896   2.82984
 Alpha virt. eigenvalues --    2.85447   2.86878   2.87378   2.89287   2.91187
 Alpha virt. eigenvalues --    2.91806   2.95130   2.97091   3.00214   3.01568
 Alpha virt. eigenvalues --    3.02246   3.06883   3.08404   3.10654   3.16653
 Alpha virt. eigenvalues --    3.17225   3.18829   3.19934   3.22234   3.23784
 Alpha virt. eigenvalues --    3.28531   3.29949   3.30805   3.35507   3.35733
 Alpha virt. eigenvalues --    3.41135   3.44546   3.49285   3.52870   3.53283
 Alpha virt. eigenvalues --    3.54545   3.55848   3.57262   3.59479   3.63025
 Alpha virt. eigenvalues --    3.63202   3.64361   3.66079   3.70271   3.72246
 Alpha virt. eigenvalues --    3.72374   3.72589   3.74246   3.75723   3.81158
 Alpha virt. eigenvalues --    3.82164   3.83976   3.85468   3.86239   3.87810
 Alpha virt. eigenvalues --    3.89733   3.91172   3.96393   4.13308   4.23436
 Alpha virt. eigenvalues --    4.27095   4.29458   4.30971   4.32995   4.36382
 Alpha virt. eigenvalues --    4.40588   4.42055   4.42154   4.49382   4.52032
 Alpha virt. eigenvalues --    4.58522   4.59748   4.63029   4.63368   4.64688
 Alpha virt. eigenvalues --    4.64810   4.67385   4.77873   4.79072   4.79730
 Alpha virt. eigenvalues --    4.83243   4.83770   4.86599   4.89890   4.90525
 Alpha virt. eigenvalues --    4.90910   4.94573   4.96722   5.03909   5.05880
 Alpha virt. eigenvalues --    5.10603   5.11166   5.23963   5.24054   5.24455
 Alpha virt. eigenvalues --    5.26190   5.32311   5.32818   5.34293   5.34374
 Alpha virt. eigenvalues --    5.35180   5.37754   5.39572   5.40262   5.57798
 Alpha virt. eigenvalues --    5.60611   5.63889   5.64106   5.66747   5.67160
 Alpha virt. eigenvalues --    5.74566   5.76710   5.79056   5.81826   5.84827
 Alpha virt. eigenvalues --    5.86673   5.97334   5.99830   6.01781   6.06282
 Alpha virt. eigenvalues --    6.08787   6.09569   6.15436   6.18390   6.23328
 Alpha virt. eigenvalues --    6.24009   6.28187   6.29001   6.40006   6.48552
 Alpha virt. eigenvalues --    6.49506   6.52613   6.52624   6.54165   6.60852
 Alpha virt. eigenvalues --    6.64316   6.68096   6.70309   6.82854   6.87897
 Alpha virt. eigenvalues --    6.92327   7.13266   7.29902   7.32022   7.33219
 Alpha virt. eigenvalues --    7.34807   7.36267   7.45737   7.46581   7.66061
 Alpha virt. eigenvalues --    7.66093   7.66720   7.88915   8.00532   8.04252
 Alpha virt. eigenvalues --    8.13754   8.14091   8.18482   8.21135   8.36819
 Alpha virt. eigenvalues --    8.49553   8.50422   8.52163   8.54984   8.55313
 Alpha virt. eigenvalues --    8.69211   8.73847   8.77374   8.82601   8.97737
 Alpha virt. eigenvalues --    8.98165   9.14789   9.22863   9.29697   9.33428
 Alpha virt. eigenvalues --    9.39760   9.46363   9.47756   9.48899   9.63986
 Alpha virt. eigenvalues --    9.76397   9.78643   9.99521  10.02355  10.10201
 Alpha virt. eigenvalues --   10.17940  10.36568  10.44897  20.49181  20.76381
 Alpha virt. eigenvalues --   20.76617  21.05551  21.06204  21.23183  21.38319
 Alpha virt. eigenvalues --   21.42013  21.69038  21.72550  21.74219  21.75663
 Alpha virt. eigenvalues --   22.18488  22.22429  22.28846  22.30918  22.33377
 Alpha virt. eigenvalues --   22.37774  22.44565  22.51357  22.74556  22.76099
 Alpha virt. eigenvalues --   23.20200  23.48822  23.67823  23.68860  23.70707
 Alpha virt. eigenvalues --   23.83919  24.26547  25.08255  28.41928  28.60034
 Alpha virt. eigenvalues --   28.98977
          Condensed to atoms (all electrons):
               1          2          3          4          5          6
     1  Cl  17.012057   0.243930  -0.102200  -0.102200   0.031125   0.031125
     2  C    0.243930   5.223819   0.401279   0.401279  -0.167267  -0.167267
     3  C   -0.102200   0.401279   5.096976  -0.043178   0.463663   0.012430
     4  C   -0.102200   0.401279  -0.043178   5.096976   0.012430   0.463663
     5  C    0.031125  -0.167267   0.463663   0.012430   5.077806  -0.134559
     6  C    0.031125  -0.167267   0.012430   0.463663  -0.134559   5.077806
     7  C    0.015945   0.012389  -0.127782  -0.127782   0.473425   0.473425
     8  H   -0.004066  -0.033806   0.457695  -0.001144  -0.021057  -0.000934
     9  H   -0.004066  -0.033806  -0.001144   0.457695  -0.000934  -0.021057
    10  H   -0.000079   0.007703  -0.030805  -0.002617   0.450753   0.004023
    11  H   -0.000079   0.007703  -0.002617  -0.030805   0.004023   0.450753
    12  H   -0.000039   0.001314   0.000335   0.000335  -0.024276  -0.024276
               7          8          9         10         11         12
     1  Cl   0.015945  -0.004066  -0.004066  -0.000079  -0.000079  -0.000039
     2  C    0.012389  -0.033806  -0.033806   0.007703   0.007703   0.001314
     3  C   -0.127782   0.457695  -0.001144  -0.030805  -0.002617   0.000335
     4  C   -0.127782  -0.001144   0.457695  -0.002617  -0.030805   0.000335
     5  C    0.473425  -0.021057  -0.000934   0.450753   0.004023  -0.024276
     6  C    0.473425  -0.000934  -0.021057   0.004023   0.450753  -0.024276
     7  C    5.047661   0.003191   0.003191  -0.026314  -0.026314   0.448791
     8  H    0.003191   0.447023   0.000184  -0.008064  -0.000039   0.000092
     9  H    0.003191   0.000184   0.447023  -0.000039  -0.008064   0.000092
    10  H   -0.026314  -0.008064  -0.000039   0.463102  -0.000035  -0.007709
    11  H   -0.026314  -0.000039  -0.008064  -0.000035   0.463102  -0.007709
    12  H    0.448791   0.000092   0.000092  -0.007709  -0.007709   0.466935
          Atomic-Atomic Spin Densities.
               1          2          3          4          5          6
     1  Cl   0.000000   0.000000   0.000000   0.000000   0.000000   0.000000
     2  C    0.000000   0.000000   0.000000   0.000000   0.000000   0.000000
     3  C    0.000000   0.000000   0.000000   0.000000   0.000000   0.000000
     4  C    0.000000   0.000000   0.000000   0.000000   0.000000   0.000000
     5  C    0.000000   0.000000   0.000000   0.000000   0.000000   0.000000
     6  C    0.000000   0.000000   0.000000   0.000000   0.000000   0.000000
     7  C    0.000000   0.000000   0.000000   0.000000   0.000000   0.000000
     8  H    0.000000   0.000000   0.000000   0.000000   0.000000   0.000000
     9  H    0.000000   0.000000   0.000000   0.000000   0.000000   0.000000
    10  H    0.000000   0.000000   0.000000   0.000000   0.000000   0.000000
    11  H    0.000000   0.000000   0.000000   0.000000   0.000000   0.000000
    12  H    0.000000   0.000000   0.000000   0.000000   0.000000   0.000000
               7          8          9         10         11         12
     1  Cl   0.000000   0.000000   0.000000   0.000000   0.000000   0.000000
     2  C    0.000000   0.000000   0.000000   0.000000   0.000000   0.000000
     3  C    0.000000   0.000000   0.000000   0.000000   0.000000   0.000000
     4  C    0.000000   0.000000   0.000000   0.000000   0.000000   0.000000
     5  C    0.000000   0.000000   0.000000   0.000000   0.000000   0.000000
     6  C    0.000000   0.000000   0.000000   0.000000   0.000000   0.000000
     7  C    0.000000   0.000000   0.000000   0.000000   0.000000   0.000000
     8  H    0.000000   0.000000   0.000000   0.000000   0.000000   0.000000
     9  H    0.000000   0.000000   0.000000   0.000000   0.000000   0.000000
    10  H    0.000000   0.000000   0.000000   0.000000   0.000000   0.000000
    11  H    0.000000   0.000000   0.000000   0.000000   0.000000   0.000000
    12  H    0.000000   0.000000   0.000000   0.000000   0.000000   0.000000
 Mulliken charges and spin densities:
               1          2
     1  Cl  -0.121454   0.000000
     2  C    0.102730   0.000000
     3  C   -0.124651   0.000000
     4  C   -0.124651   0.000000
     5  C   -0.165133   0.000000
     6  C   -0.165133   0.000000
     7  C   -0.169827   0.000000
     8  H    0.160923   0.000000
     9  H    0.160923   0.000000
    10  H    0.150080   0.000000
    11  H    0.150080   0.000000
    12  H    0.146113   0.000000
 Sum of Mulliken charges =  -0.00000   0.00000
 Mulliken charges and spin densities with hydrogens summed into heavy atoms:
               1          2
     1  Cl  -0.121454   0.000000
     2  C    0.102730   0.000000
     3  C    0.036272   0.000000
     4  C    0.036272   0.000000
     5  C   -0.015052   0.000000
     6  C   -0.015052   0.000000
     7  C   -0.023714   0.000000
 Electronic spatial extent (au):  <R**2>=            898.3525
 Charge=             -0.0000 electrons
 Dipole moment (field-independent basis, Debye):
    X=             -0.0000    Y=              0.0000    Z=             -1.9779  Tot=              1.9779
 Quadrupole moment (field-independent basis, Debye-Ang):
   XX=            -52.2300   YY=            -42.4852   ZZ=            -46.7292
   XY=              0.0000   XZ=              0.0000   YZ=              0.0000
 Traceless Quadrupole moment (field-independent basis, Debye-Ang):
   XX=             -5.0819   YY=              4.6630   ZZ=              0.4189
   XY=              0.0000   XZ=              0.0000   YZ=              0.0000
 Octapole moment (field-independent basis, Debye-Ang**2):
  XXX=              0.0000  YYY=             -0.0000  ZZZ=             -5.5684  XYY=              0.0000
  XXY=              0.0000  XXZ=              7.4047  XZZ=              0.0000  YZZ=             -0.0000
  YYZ=             -1.1627  XYZ=             -0.0000
 Hexadecapole moment (field-independent basis, Debye-Ang**3):
 XXXX=            -62.6950 YYYY=           -274.8587 ZZZZ=           -791.9078 XXXY=             -0.0000
 XXXZ=             -0.0000 YYYX=             -0.0000 YYYZ=              0.0000 ZZZX=             -0.0000
 ZZZY=             -0.0000 XXYY=            -68.6856 XXZZ=           -165.2524 YYZZ=           -181.9219
 XXYZ=              0.0000 YYXZ=             -0.0000 ZZXY=             -0.0000
 N-N= 3.159417344640D+02 E-N=-2.261934220965D+03  KE= 6.894842635214D+02
 Symmetry A1   KE= 5.136041688215D+02
 Symmetry A2   KE= 2.064612180863D+00
 Symmetry B1   KE= 4.971397265665D+01
 Symmetry B2   KE= 1.241015098624D+02
 Symmetry A1   SP= 0.000000000000D+00
 Symmetry A2   SP= 0.000000000000D+00
 Symmetry B1   SP= 0.000000000000D+00
 Symmetry B2   SP= 0.000000000000D+00
                          Isotropic Fermi Contact Couplings
        Atom                 a.u.       MegaHertz       Gauss      10(-4) cm-1
     1  Cl(35)             0.00000       0.00000       0.00000       0.00000
     2  C(13)              0.00000       0.00000       0.00000       0.00000
     3  C(13)              0.00000       0.00000       0.00000       0.00000
     4  C(13)              0.00000       0.00000       0.00000       0.00000
     5  C(13)              0.00000       0.00000       0.00000       0.00000
     6  C(13)              0.00000       0.00000       0.00000       0.00000
     7  C(13)              0.00000       0.00000       0.00000       0.00000
     8  H(1)               0.00000       0.00000       0.00000       0.00000
     9  H(1)               0.00000       0.00000       0.00000       0.00000
    10  H(1)               0.00000       0.00000       0.00000       0.00000
    11  H(1)               0.00000       0.00000       0.00000       0.00000
    12  H(1)               0.00000       0.00000       0.00000       0.00000
 --------------------------------------------------------
       Center         ----  Spin Dipole Couplings  ----
                      3XX-RR        3YY-RR        3ZZ-RR
 --------------------------------------------------------
     1   Atom        0.000000      0.000000      0.000000
     2   Atom        0.000000      0.000000      0.000000
     3   Atom        0.000000      0.000000      0.000000
     4   Atom        0.000000      0.000000      0.000000
     5   Atom        0.000000      0.000000      0.000000
     6   Atom        0.000000      0.000000      0.000000
     7   Atom        0.000000      0.000000      0.000000
     8   Atom        0.000000      0.000000      0.000000
     9   Atom        0.000000      0.000000      0.000000
    10   Atom        0.000000      0.000000      0.000000
    11   Atom        0.000000      0.000000      0.000000
    12   Atom        0.000000      0.000000      0.000000
 --------------------------------------------------------
                        XY            XZ            YZ
 --------------------------------------------------------
     1   Atom        0.000000      0.000000      0.000000
     2   Atom        0.000000      0.000000      0.000000
     3   Atom        0.000000      0.000000      0.000000
     4   Atom        0.000000      0.000000      0.000000
     5   Atom        0.000000      0.000000      0.000000
     6   Atom        0.000000      0.000000      0.000000
     7   Atom        0.000000      0.000000      0.000000
     8   Atom        0.000000      0.000000      0.000000
     9   Atom        0.000000      0.000000      0.000000
    10   Atom        0.000000      0.000000      0.000000
    11   Atom        0.000000      0.000000      0.000000
    12   Atom        0.000000      0.000000      0.000000
 --------------------------------------------------------


 ---------------------------------------------------------------------------------
              Anisotropic Spin Dipole Couplings in Principal Axis System
 ---------------------------------------------------------------------------------

       Atom             a.u.   MegaHertz   Gauss  10(-4) cm-1        Axes

              Baa     0.0000     0.000     0.000     0.000  1.0000  0.0000  0.0000
     1 Cl(35) Bbb     0.0000     0.000     0.000     0.000 -0.0000  1.0000  0.0000
              Bcc     0.0000     0.000     0.000     0.000  0.0000  0.0000  1.0000
 
              Baa     0.0000     0.000     0.000     0.000  1.0000  0.0000  0.0000
     2 C(13)  Bbb     0.0000     0.000     0.000     0.000 -0.0000  1.0000  0.0000
              Bcc     0.0000     0.000     0.000     0.000  0.0000  0.0000  1.0000
 
              Baa     0.0000     0.000     0.000     0.000  1.0000  0.0000  0.0000
     3 C(13)  Bbb     0.0000     0.000     0.000     0.000 -0.0000  1.0000  0.0000
              Bcc     0.0000     0.000     0.000     0.000  0.0000  0.0000  1.0000
 
              Baa     0.0000     0.000     0.000     0.000  1.0000  0.0000  0.0000
     4 C(13)  Bbb     0.0000     0.000     0.000     0.000 -0.0000  1.0000  0.0000
              Bcc     0.0000     0.000     0.000     0.000  0.0000  0.0000  1.0000
 
              Baa     0.0000     0.000     0.000     0.000  1.0000  0.0000  0.0000
     5 C(13)  Bbb     0.0000     0.000     0.000     0.000 -0.0000  1.0000  0.0000
              Bcc     0.0000     0.000     0.000     0.000  0.0000  0.0000  1.0000
 
              Baa     0.0000     0.000     0.000     0.000  1.0000  0.0000  0.0000
     6 C(13)  Bbb     0.0000     0.000     0.000     0.000 -0.0000  1.0000  0.0000
              Bcc     0.0000     0.000     0.000     0.000  0.0000  0.0000  1.0000
 
              Baa     0.0000     0.000     0.000     0.000  1.0000  0.0000  0.0000
     7 C(13)  Bbb     0.0000     0.000     0.000     0.000 -0.0000  1.0000  0.0000
              Bcc     0.0000     0.000     0.000     0.000  0.0000  0.0000  1.0000
 
              Baa     0.0000     0.000     0.000     0.000  1.0000  0.0000  0.0000
     8 H(1)   Bbb     0.0000     0.000     0.000     0.000 -0.0000  1.0000  0.0000
              Bcc     0.0000     0.000     0.000     0.000  0.0000  0.0000  1.0000
 
              Baa     0.0000     0.000     0.000     0.000  1.0000  0.0000  0.0000
     9 H(1)   Bbb     0.0000     0.000     0.000     0.000 -0.0000  1.0000  0.0000
              Bcc     0.0000     0.000     0.000     0.000  0.0000  0.0000  1.0000
 
              Baa     0.0000     0.000     0.000     0.000  1.0000  0.0000  0.0000
    10 H(1)   Bbb     0.0000     0.000     0.000     0.000 -0.0000  1.0000  0.0000
              Bcc     0.0000     0.000     0.000     0.000  0.0000  0.0000  1.0000
 
              Baa     0.0000     0.000     0.000     0.000  1.0000  0.0000  0.0000
    11 H(1)   Bbb     0.0000     0.000     0.000     0.000 -0.0000  1.0000  0.0000
              Bcc     0.0000     0.000     0.000     0.000  0.0000  0.0000  1.0000
 
              Baa     0.0000     0.000     0.000     0.000  1.0000  0.0000  0.0000
    12 H(1)   Bbb     0.0000     0.000     0.000     0.000 -0.0000  1.0000  0.0000
              Bcc     0.0000     0.000     0.000     0.000  0.0000  0.0000  1.0000
 

 ---------------------------------------------------------------------------------

 1\1\GINC-GAMBA\SP\ROHF\Gen\C6H5Cl1\IRIKURA\30-Sep-2023\0\\# rohf/gen g
 eom=check guess=check\\chlorobenzene, ROHF/cc-pVTZ-F12\\0,1\Cl,0,0.,0.
 ,2.254235\C,0,0.,0.,0.502974\C,0,0.,1.209983,-0.177547\C,0,0.,-1.20998
 3,-0.177547\C,0,0.,1.202094,-1.567571\C,0,0.,-1.202094,-1.567571\C,0,0
 .,0.,-2.26531\H,0,0.,2.138969,0.373109\H,0,0.,-2.138969,0.373109\H,0,0
 .,2.141644,-2.10319\H,0,0.,-2.141644,-2.10319\H,0,0.,0.,-3.346394\\Ver
 sion=ES64L-G16RevB.01\State=1-A1\HF=-689.7335025\RMSD=8.394e-09\Dipole
 =0.,0.,-0.7781788\Quadrupole=-3.7782414,3.4667957,0.3114457,0.,0.,0.\P
 G=C02V [C2(H1C1C1Cl1),SGV(C4H4)]\\@


 ALTHOUGH J.J. COULD DIAGNOSE THE FAULTS OF AN
 APPARATUS WITH UNCANNY ACCURACY, IT WAS JUST AS
 WELL NOT TO LET HIM HANDLE IT.
   -- GEORGE THOMPSON, ABOUT HIS FATHER
 Job cpu time:       0 days  0 hours 19 minutes 30.3 seconds.
 Elapsed time:       0 days  0 hours  4 minutes 52.8 seconds.
 File lengths (MBytes):  RWF=    161 Int=      0 D2E=      0 Chk=     19 Scr=      1
 Normal termination of Gaussian 16 at Sat Sep 30 23:03:03 2023.
