 Entering Gaussian System, Link 0=g16
 AtFile(1): pcseg2.gbs
            -H     0
            S   4   1.00
                  0.754732D+02           0.427821D-02
                  0.113575D+02           0.328672D-01
                  0.260081D+01           0.159578D+00
                  0.735503D+00           0.500000D+00
            S   1   1.00
                  0.231761D+00           1.0000000
            S   1   1.00
                  0.741675D-01           1.0000000
            P   1   1.00
                  0.160000D+01           1.0000000
            P   1   1.00
                  0.450000D+00           1.0000000
            D   1   1.00
                  0.125000D+01           1.0000000
            ****
            -C     0
            S   7   1.00
                  0.731999D+04           0.695369D-03
                  0.109818D+04           0.537138D-02
                  0.250014D+03           0.274734D-01
                  0.707586D+02           0.105078D+00
                  0.228595D+02           0.291262D+00
                  0.803936D+01           0.500000D+00
                  0.289309D+01           0.362224D+00
            S   2   1.00
                  0.521640D+01          -0.957844D-01
                  0.556124D+00           0.500000D+00
            S   1   1.00
                  0.228813D+00           1.0000000
            S   1   1.00
                  0.936338D-01           1.0000000
            P   4   1.00
                  0.339855D+02           0.818395D-02
                  0.772957D+01           0.586921D-01
                  0.224954D+01           0.222514D+00
                  0.767681D+00           0.500000D+00
            P   1   1.00
                  0.263283D+00           1.0000000
            P   1   1.00
                  0.848744D-01           1.0000000
            D   1   1.00
                  0.140000D+01           1.0000000
            D   1   1.00
                  0.450000D+00           1.0000000
            F   1   1.00
                  0.950000D+00           1.0000000
            ****
            -O     0
            S   7   1.00
                  0.135887D+05           0.665492D-03
                  0.203847D+04           0.514222D-02
                  0.464041D+03           0.263472D-01
                  0.131339D+03           0.101500D+00
                  0.425340D+02           0.285877D+00
                  0.150429D+02           0.500000D+00
                  0.546616D+01           0.368211D+00
            S   2   1.00
                  0.100915D+02          -0.100084D+00
                  0.110429D+01           0.500000D+00
            S   1   1.00
                  0.448082D+00           1.0000000
            S   1   1.00
                  0.175325D+00           1.0000000
            P   4   1.00
                  0.608220D+02           0.908253D-02
                  0.140332D+02           0.645878D-01
                  0.418244D+01           0.241502D+00
                  0.142490D+01           0.500000D+00
            P   1   1.00
                  0.478741D+00           1.0000000
            P   1   1.00
                  0.146257D+00           1.0000000
            D   1   1.00
                  0.220000D+01           1.0000000
            D   1   1.00
                  0.650000D+00           1.0000000
            F   1   1.00
                  0.110000D+01           1.0000000
            ****
            -N     0
            S   7   1.00
                  0.101643D+05           0.682757D-03
                  0.152481D+04           0.527488D-02
                  0.347119D+03           0.270037D-01
                  0.982389D+02           0.103673D+00
                  0.317799D+02           0.289575D+00
                  0.112240D+02           0.500000D+00
                  0.406611D+01           0.364621D+00
            S   2   1.00
                  0.747898D+01          -0.975681D-01
                  0.805040D+00           0.500000D+00
            S   1   1.00
                  0.324626D+00           1.0000000
            S   1   1.00
                  0.128132D+00           1.0000000
            P   4   1.00
                  0.482704D+02           0.829547D-02
                  0.110815D+02           0.596223D-01
                  0.326643D+01           0.227889D+00
                  0.111680D+01           0.500000D+00
            P   1   1.00
                  0.382049D+00           1.0000000
            P   1   1.00
                  0.121222D+00           1.0000000
            D   1   1.00
                  0.180000D+01           1.0000000
            D   1   1.00
                  0.550000D+00           1.0000000
            F   1   1.00
                  0.102000D+01           1.0000000
            ****
            -F     0
            S   7   1.00
                  0.174507D+05           0.655972D-03
                  0.261768D+04           0.506944D-02
                  0.595857D+03           0.259899D-01
                  0.168651D+03           0.100353D+00
                  0.546654D+02           0.284095D+00
                  0.193717D+02           0.500000D+00
                  0.706202D+01           0.370721D+00
            S   2   1.00
                  0.131197D+02          -0.101997D+00
                  0.145046D+01           0.500000D+00
            S   1   1.00
                  0.588255D+00           1.0000000
            S   1   1.00
                  0.227960D+00           1.0000000
            P   4   1.00
                  0.779407D+02           0.931135D-02
                  0.180425D+02           0.663964D-01
                  0.542342D+01           0.246386D+00
                  0.184876D+01           0.500000D+00
            P   1   1.00
                  0.617455D+00           1.0000000
            P   1   1.00
                  0.185496D+00           1.0000000
            D   1   1.00
                  0.280000D+01           1.0000000
            D   1   1.00
                  0.800000D+00           1.0000000
            F   1   1.00
                  0.120000D+01           1.0000000
            ****
            -Cl     0
            S   8   1.00
                  0.154272D+06           0.222473D-03
                  0.231232D+05           0.172590D-02
                  0.526257D+04           0.899286D-02
                  0.148995D+04           0.367724D-01
                  0.485417D+03           0.121446D+00
                  0.174634D+03           0.304148D+00
                  0.672393D+02           0.500000D+00
                  0.265780D+02           0.360252D+00
            S   3   1.00
                  0.131826D+03          -0.531330D-01
                  0.400703D+02          -0.233346D+00
                  0.789448D+01           0.500000D+00
            S   2   1.00
                  0.427711D+01           0.500000D+00
                  0.196233D+01           0.370517D+00
            S   1   1.00
                  0.520793D+00           1.0000000
            S   1   1.00
                  0.181633D+00           1.0000000
            P   7   1.00
                  0.124440D+04           0.988206D-03
                  0.295109D+03           0.829674D-02
                  0.947224D+02           0.430906D-01
                  0.352588D+02           0.148443D+00
                  0.144211D+02           0.344744D+00
                  0.610371D+01           0.500000D+00
                  0.258886D+01           0.348278D+00
            P   2   1.00
                  0.109447D+02          -0.196768D-01
                  0.104413D+01           0.500000D+00
            P   1   1.00
                  0.376184D+00           1.0000000
            P   1   1.00
                  0.120613D+00           1.0000000
            D   1   1.00
                  0.231000D+01           1.0000000
            D   1   1.00
                  0.520000D+00           1.0000000
            F   1   1.00
                  0.720000D+00           1.0000000
            ****
            -S     0
            S   8   1.00
                  0.134700D+06           0.226231D-03
                  0.201904D+05           0.175488D-02
                  0.459528D+04           0.914190D-02
                  0.130109D+04           0.373551D-01
                  0.423902D+03           0.123121D+00
                  0.152485D+03           0.306801D+00
                  0.586925D+02           0.500000D+00
                  0.231461D+02           0.354358D+00
            S   3   1.00
                  0.116327D+03          -0.491772D-01
                  0.352841D+02          -0.215962D+00
                  0.677831D+01           0.500000D+00
            S   2   1.00
                  0.360404D+01           0.500000D+00
                  0.164871D+01           0.366278D+00
            S   1   1.00
                  0.421821D+00           1.0000000
            S   1   1.00
                  0.147554D+00           1.0000000
            P   7   1.00
                  0.104863D+04           0.105273D-02
                  0.248717D+03           0.879338D-02
                  0.797887D+02           0.453358D-01
                  0.296023D+02           0.154476D+00
                  0.120627D+02           0.352366D+00
                  0.507628D+01           0.500000D+00
                  0.213375D+01           0.346429D+00
            P   2   1.00
                  0.928958D+01          -0.185932D-01
                  0.837819D+00           0.500000D+00
            P   1   1.00
                  0.301495D+00           1.0000000
            P   1   1.00
                  0.974740D-01           1.0000000
            D   1   1.00
                  0.210000D+01           1.0000000
            D   1   1.00
                  0.480000D+00           1.0000000
            F   1   1.00
                  0.660000D+00           1.0000000
            ****
            -Br     0
            S    10   1.00
                  0.233625D+07           0.532336D-04
                  0.349961D+06           0.413715D-03
                  0.796444D+05           0.217123D-02
                  0.225555D+05           0.910109D-02
                  0.735546D+04           0.323789D-01
                  0.265352D+04           0.988755D-01
                  0.103517D+04           0.248138D+00
                  0.422205D+03           0.474328D+00
                  0.180035D+03           0.500000D+00
                  0.793308D+02           0.187769D+00
            S    4   1.00
                  0.620834D+03          -0.226511D-01
                  0.190829D+03          -0.109497D+00
                  0.312505D+02           0.500000D+00
                  0.135270D+02           0.492812D+00
            S    2   1.00
                  0.216097D+02          -0.165418D+00
                  0.372566D+01           0.500000D+00
            S    1   1.00
                  0.169770D+01           1.0000000
            S    1   1.00
                  0.489332D+00           1.0000000
            S    1   1.00
                  0.175712D+00           1.0000000
            P    8   1.00
                  0.960829D+04           0.478974D-03
                  0.227618D+04           0.417853D-02
                  0.736723D+03           0.229315D-01
                  0.281579D+03           0.892653D-01
                  0.118395D+03           0.255288D+00
                  0.527481D+02           0.479074D+00
                  0.245098D+02           0.500000D+00
                  0.112009D+02           0.200944D+00
            P    4   1.00
                  0.587849D+02          -0.189674D-01
                  0.918962D+01           0.264104D+00
                  0.413895D+01           0.500000D+00
                  0.184225D+01           0.319316D+00
            P    1   1.00
                  0.713862D+00           1.0000000
            P    1   1.00
                  0.274232D+00           1.0000000
            P    1   1.00
                  0.944411D-01           1.0000000
            D    7   1.00
                  0.398470D+03           0.204066D-02
                  0.118967D+03           0.175171D-01
                  0.450197D+02           0.829708D-01
                  0.190320D+02           0.236284D+00
                  0.855686D+01           0.428468D+00
                  0.382950D+01           0.500000D+00
                  0.166291D+01           0.349360D+00
            D    1   1.00
                  0.672953D+00           1.0000000
            D    1   1.00
                  0.252000D+00           1.0000000
            F    1   1.00
                  0.530000D+00           1.0000000
            ****
            -Si     0
            S    8   1.00
                  0.996133D+05           0.235546D-03
                  0.149311D+05           0.182707D-02
                  0.339820D+04           0.951425D-02
                  0.962140D+03           0.388172D-01
                  0.313430D+03           0.127328D+00
                  0.112683D+03           0.313522D+00
                  0.433372D+02           0.500000D+00
                  0.170029D+02           0.340347D+00
            S    3   1.00
                  0.884208D+02          -0.404451D-01
                  0.266756D+02          -0.178059D+00
                  0.479640D+01           0.500000D+00
            S    2   1.00
                  0.239385D+01           0.500000D+00
                  0.108333D+01           0.338016D+00
            S    1   1.00
                  0.252420D+00           1.0000000
            S    1   1.00
                  0.891210D-01           1.0000000
            P    7   1.00
                  0.709901D+03           0.123028D-02
                  0.168426D+03           0.101366D-01
                  0.539946D+02           0.511840D-01
                  0.198646D+02           0.169967D+00
                  0.801369D+01           0.370717D+00
                  0.331870D+01           0.500000D+00
                  0.136112D+01           0.344128D+00
            P    2   1.00
                  0.622158D+01          -0.166609D-01
                  0.503049D+00           0.500000D+00
            P    1   1.00
                  0.179848D+00           1.0000000
            P    1   1.00
                  0.591912D-01           1.0000000
            D    1   1.00
                  0.168000D+01           1.0000000
            D    1   1.00
                  0.380000D+00           1.0000000
            F    1   1.00
                  0.540000D+00           1.0000000
            ****
            -P     0
            S    8   1.00
                  0.116416D+06           0.230715D-03
                  0.174500D+05           0.178960D-02
                  0.397149D+04           0.932116D-02
                  0.112447D+04           0.380591D-01
                  0.366347D+03           0.125148D+00
                  0.131757D+03           0.310022D+00
                  0.506988D+02           0.500000D+00
                  0.199436D+02           0.347528D+00
            S    3   1.00
                  0.101878D+03          -0.446755D-01
                  0.308249D+02          -0.196376D+00
                  0.573688D+01           0.500000D+00
            S    2   1.00
                  0.296868D+01           0.500000D+00
                  0.135315D+01           0.355098D+00
            S    1   1.00
                  0.332196D+00           1.0000000
            S    1   1.00
                  0.116229D+00           1.0000000
            P    7   1.00
                  0.873928D+03           0.112375D-02
                  0.207298D+03           0.933330D-02
                  0.664628D+02           0.477213D-01
                  0.245665D+02           0.160733D+00
                  0.996820D+01           0.359760D+00
                  0.416536D+01           0.500000D+00
                  0.173022D+01           0.346593D+00
            P    2   1.00
                  0.772530D+01          -0.175718D-01
                  0.657252D+00           0.500000D+00
            P    1   1.00
                  0.239903D+00           1.0000000
            P    1   1.00
                  0.800988D-01           1.0000000
            D    1   1.00
                  0.189000D+01           1.0000000
            D    1   1.00
                  0.430000D+00           1.0000000
            F    1   1.00
                  0.600000D+00           1.0000000
            ****
            
 Initial command:
 /usr/local/apps/g16_b01_avx/g16/l1.exe "/wrk/irikura/Gau-9739.inp" -scrdir="/wrk/irikura/"
 Entering Link 1 = /usr/local/apps/g16_b01_avx/g16/l1.exe PID=      9741.
  
 Copyright (c) 1988-2017, Gaussian, Inc.  All Rights Reserved.
  
 This is part of the Gaussian(R) 16 program.  It is based on
 the Gaussian(R) 09 system (copyright 2009, Gaussian, Inc.),
 the Gaussian(R) 03 system (copyright 2003, Gaussian, Inc.),
 the Gaussian(R) 98 system (copyright 1998, Gaussian, Inc.),
 the Gaussian(R) 94 system (copyright 1995, Gaussian, Inc.),
 the Gaussian 92(TM) system (copyright 1992, Gaussian, Inc.),
 the Gaussian 90(TM) system (copyright 1990, Gaussian, Inc.),
 the Gaussian 88(TM) system (copyright 1988, Gaussian, Inc.),
 the Gaussian 86(TM) system (copyright 1986, Carnegie Mellon
 University), and the Gaussian 82(TM) system (copyright 1983,
 Carnegie Mellon University). Gaussian is a federally registered
 trademark of Gaussian, Inc.
  
 This software contains proprietary and confidential information,
 including trade secrets, belonging to Gaussian, Inc.
  
 This software is provided under written license and may be
 used, copied, transmitted, or stored only in accord with that
 written license.
  
 The following legend is applicable only to US Government
 contracts under FAR:
  
                    RESTRICTED RIGHTS LEGEND
  
 Use, reproduction and disclosure by the US Government is
 subject to restrictions as set forth in subparagraphs (a)
 and (c) of the Commercial Computer Software - Restricted
 Rights clause in FAR 52.227-19.
  
 Gaussian, Inc.
 340 Quinnipiac St., Bldg. 40, Wallingford CT 06492
  
  
 ---------------------------------------------------------------
 Warning -- This program may not be used in any manner that
 competes with the business of Gaussian, Inc. or will provide
 assistance to any competitor of Gaussian, Inc.  The licensee
 of this program is prohibited from giving any competitor of
 Gaussian, Inc. access to this program.  By using this program,
 the user acknowledges that Gaussian, Inc. is engaged in the
 business of creating and licensing software in the field of
 computational chemistry and represents and warrants to the
 licensee that it is not a competitor of Gaussian, Inc. and that
 it will not use this program in any manner prohibited above.
 ---------------------------------------------------------------
  

 Cite this work as:
 Gaussian 16, Revision B.01,
 M. J. Frisch, G. W. Trucks, H. B. Schlegel, G. E. Scuseria, 
 M. A. Robb, J. R. Cheeseman, G. Scalmani, V. Barone, 
 G. A. Petersson, H. Nakatsuji, X. Li, M. Caricato, A. V. Marenich, 
 J. Bloino, B. G. Janesko, R. Gomperts, B. Mennucci, H. P. Hratchian, 
 J. V. Ortiz, A. F. Izmaylov, J. L. Sonnenberg, D. Williams-Young, 
 F. Ding, F. Lipparini, F. Egidi, J. Goings, B. Peng, A. Petrone, 
 T. Henderson, D. Ranasinghe, V. G. Zakrzewski, J. Gao, N. Rega, 
 G. Zheng, W. Liang, M. Hada, M. Ehara, K. Toyota, R. Fukuda, 
 J. Hasegawa, M. Ishida, T. Nakajima, Y. Honda, O. Kitao, H. Nakai, 
 T. Vreven, K. Throssell, J. A. Montgomery, Jr., J. E. Peralta, 
 F. Ogliaro, M. J. Bearpark, J. J. Heyd, E. N. Brothers, K. N. Kudin, 
 V. N. Staroverov, T. A. Keith, R. Kobayashi, J. Normand, 
 K. Raghavachari, A. P. Rendell, J. C. Burant, S. S. Iyengar, 
 J. Tomasi, M. Cossi, J. M. Millam, M. Klene, C. Adamo, R. Cammi, 
 J. W. Ochterski, R. L. Martin, K. Morokuma, O. Farkas, 
 J. B. Foresman, and D. J. Fox, Gaussian, Inc., Wallingford CT, 2016.
 
 ******************************************
 Gaussian 16:  ES64L-G16RevB.01 20-Dec-2017
                16-Jun-2022 
 ******************************************
 %mem=1000mw
 %nprocs=12
 Will use up to   12 processors via shared memory.
 --------------------
 # b3lyp/gen opt freq
 --------------------
 1/18=20,19=15,26=3,38=1/1,3;
 2/9=110,12=2,17=6,18=5,40=1/2;
 3/5=7,11=2,25=1,30=1,71=1,74=-5/1,2,3;
 4//1;
 5/5=2,38=5/2;
 6/7=2,8=2,9=2,10=2,28=1/1;
 7//1,2,3,16;
 1/18=20,19=15,26=3/3(2);
 2/9=110/2;
 99//99;
 2/9=110/2;
 3/5=7,6=1,11=2,25=1,30=1,71=1,74=-5,82=7/1,2,3;
 4/5=5,16=3,69=1/1;
 5/5=2,38=5/2;
 7//1,2,3,16;
 1/18=20,19=15,26=3/3(-5);
 2/9=110/2;
 6/7=2,8=2,9=2,10=2,19=2,28=1/1;
 99/9=1/99;
 ---------------------------
 ethylbenzene, B3LYP/pcseg-2
 ---------------------------
 Symbolic Z-matrix:
 Charge =  0 Multiplicity = 1
 C                    -0.23307   0.49038   0. 
 C                    -0.23466  -0.22835   1.2003 
 C                    -0.23466  -1.62145   1.20343 
 C                    -0.23388  -2.32364   0. 
 C                    -0.23466  -1.62145  -1.20343 
 C                    -0.23466  -0.22835  -1.2003 
 C                    -0.19288   2.00357   0. 
 C                     1.23858   2.56542   0. 
 H                    -0.24095   0.31019   2.14438 
 H                    -0.23993  -2.15903   2.14676 
 H                    -0.23727  -3.40898   0. 
 H                    -0.23993  -2.15903  -2.14676 
 H                    -0.24095   0.31019  -2.14438 
 H                    -0.72935   2.38336  -0.87592 
 H                    -0.72935   2.38336   0.87592 
 H                     1.79264   2.23191   0.8816 
 H                     1.79264   2.23191  -0.8816 
 H                     1.23188   3.65934   0. 
 

 GradGradGradGradGradGradGradGradGradGradGradGradGradGradGradGradGradGrad
 Berny optimization.
 Initialization pass.
                           ----------------------------
                           !    Initial Parameters    !
                           ! (Angstroms and Degrees)  !
 --------------------------                            --------------------------
 ! Name  Definition              Value          Derivative Info.                !
 --------------------------------------------------------------------------------
 ! R1    R(1,2)                  1.399          estimate D2E/DX2                !
 ! R2    R(1,6)                  1.399          estimate D2E/DX2                !
 ! R3    R(1,7)                  1.5137         estimate D2E/DX2                !
 ! R4    R(2,3)                  1.3931         estimate D2E/DX2                !
 ! R5    R(2,9)                  1.0869         estimate D2E/DX2                !
 ! R6    R(3,4)                  1.3933         estimate D2E/DX2                !
 ! R7    R(3,10)                 1.0858         estimate D2E/DX2                !
 ! R8    R(4,5)                  1.3933         estimate D2E/DX2                !
 ! R9    R(4,11)                 1.0854         estimate D2E/DX2                !
 ! R10   R(5,6)                  1.3931         estimate D2E/DX2                !
 ! R11   R(5,12)                 1.0858         estimate D2E/DX2                !
 ! R12   R(6,13)                 1.0869         estimate D2E/DX2                !
 ! R13   R(7,8)                  1.5378         estimate D2E/DX2                !
 ! R14   R(7,14)                 1.0951         estimate D2E/DX2                !
 ! R15   R(7,15)                 1.0951         estimate D2E/DX2                !
 ! R16   R(8,16)                 1.0934         estimate D2E/DX2                !
 ! R17   R(8,17)                 1.0934         estimate D2E/DX2                !
 ! R18   R(8,18)                 1.0939         estimate D2E/DX2                !
 ! A1    A(2,1,6)              118.1746         estimate D2E/DX2                !
 ! A2    A(2,1,7)              120.9025         estimate D2E/DX2                !
 ! A3    A(6,1,7)              120.9025         estimate D2E/DX2                !
 ! A4    A(1,2,3)              121.0411         estimate D2E/DX2                !
 ! A5    A(1,2,9)              119.3852         estimate D2E/DX2                !
 ! A6    A(3,2,9)              119.573          estimate D2E/DX2                !
 ! A7    A(2,3,4)              120.1346         estimate D2E/DX2                !
 ! A8    A(2,3,10)             119.806          estimate D2E/DX2                !
 ! A9    A(4,3,10)             120.0589         estimate D2E/DX2                !
 ! A10   A(3,4,5)              119.4738         estimate D2E/DX2                !
 ! A11   A(3,4,11)             120.2628         estimate D2E/DX2                !
 ! A12   A(5,4,11)             120.2628         estimate D2E/DX2                !
 ! A13   A(4,5,6)              120.1346         estimate D2E/DX2                !
 ! A14   A(4,5,12)             120.0589         estimate D2E/DX2                !
 ! A15   A(6,5,12)             119.806          estimate D2E/DX2                !
 ! A16   A(1,6,5)              121.0411         estimate D2E/DX2                !
 ! A17   A(1,6,13)             119.3852         estimate D2E/DX2                !
 ! A18   A(5,6,13)             119.573          estimate D2E/DX2                !
 ! A19   A(1,7,8)              112.9514         estimate D2E/DX2                !
 ! A20   A(1,7,14)             109.4918         estimate D2E/DX2                !
 ! A21   A(1,7,15)             109.4918         estimate D2E/DX2                !
 ! A22   A(8,7,14)             109.2262         estimate D2E/DX2                !
 ! A23   A(8,7,15)             109.2262         estimate D2E/DX2                !
 ! A24   A(14,7,15)            106.2306         estimate D2E/DX2                !
 ! A25   A(7,8,16)             111.1164         estimate D2E/DX2                !
 ! A26   A(7,8,17)             111.1164         estimate D2E/DX2                !
 ! A27   A(7,8,18)             111.0791         estimate D2E/DX2                !
 ! A28   A(16,8,17)            107.4771         estimate D2E/DX2                !
 ! A29   A(16,8,18)            107.9467         estimate D2E/DX2                !
 ! A30   A(17,8,18)            107.9467         estimate D2E/DX2                !
 ! D1    D(6,1,2,3)              0.1481         estimate D2E/DX2                !
 ! D2    D(6,1,2,9)           -179.5475         estimate D2E/DX2                !
 ! D3    D(7,1,2,3)           -178.2266         estimate D2E/DX2                !
 ! D4    D(7,1,2,9)              2.0778         estimate D2E/DX2                !
 ! D5    D(2,1,6,5)             -0.1481         estimate D2E/DX2                !
 ! D6    D(2,1,6,13)           179.5475         estimate D2E/DX2                !
 ! D7    D(7,1,6,5)            178.2266         estimate D2E/DX2                !
 ! D8    D(7,1,6,13)            -2.0778         estimate D2E/DX2                !
 ! D9    D(2,1,7,8)             89.1651         estimate D2E/DX2                !
 ! D10   D(2,1,7,14)          -148.8807         estimate D2E/DX2                !
 ! D11   D(2,1,7,15)           -32.789          estimate D2E/DX2                !
 ! D12   D(6,1,7,8)            -89.1651         estimate D2E/DX2                !
 ! D13   D(6,1,7,14)            32.789          estimate D2E/DX2                !
 ! D14   D(6,1,7,15)           148.8807         estimate D2E/DX2                !
 ! D15   D(1,2,3,4)             -0.0386         estimate D2E/DX2                !
 ! D16   D(1,2,3,10)          -179.7557         estimate D2E/DX2                !
 ! D17   D(9,2,3,4)            179.6564         estimate D2E/DX2                !
 ! D18   D(9,2,3,10)            -0.0607         estimate D2E/DX2                !
 ! D19   D(2,3,4,5)             -0.0743         estimate D2E/DX2                !
 ! D20   D(2,3,4,11)          -179.7928         estimate D2E/DX2                !
 ! D21   D(10,3,4,5)           179.642          estimate D2E/DX2                !
 ! D22   D(10,3,4,11)           -0.0764         estimate D2E/DX2                !
 ! D23   D(3,4,5,6)              0.0743         estimate D2E/DX2                !
 ! D24   D(3,4,5,12)          -179.642          estimate D2E/DX2                !
 ! D25   D(11,4,5,6)           179.7928         estimate D2E/DX2                !
 ! D26   D(11,4,5,12)            0.0764         estimate D2E/DX2                !
 ! D27   D(4,5,6,1)              0.0386         estimate D2E/DX2                !
 ! D28   D(4,5,6,13)          -179.6564         estimate D2E/DX2                !
 ! D29   D(12,5,6,1)           179.7557         estimate D2E/DX2                !
 ! D30   D(12,5,6,13)            0.0607         estimate D2E/DX2                !
 ! D31   D(1,7,8,16)           -59.8107         estimate D2E/DX2                !
 ! D32   D(1,7,8,17)            59.8107         estimate D2E/DX2                !
 ! D33   D(1,7,8,18)           180.0            estimate D2E/DX2                !
 ! D34   D(14,7,8,16)          178.086          estimate D2E/DX2                !
 ! D35   D(14,7,8,17)          -62.2927         estimate D2E/DX2                !
 ! D36   D(14,7,8,18)           57.8966         estimate D2E/DX2                !
 ! D37   D(15,7,8,16)           62.2927         estimate D2E/DX2                !
 ! D38   D(15,7,8,17)         -178.086          estimate D2E/DX2                !
 ! D39   D(15,7,8,18)          -57.8966         estimate D2E/DX2                !
 --------------------------------------------------------------------------------
 Trust Radius=3.00D-01 FncErr=1.00D-07 GrdErr=1.00D-06 EigMax=2.50D+02 EigMin=1.00D-04
 Number of steps in this run=     97 maximum allowed number of steps=    108.
 GradGradGradGradGradGradGradGradGradGradGradGradGradGradGradGradGradGrad

                          Input orientation:                          
 ---------------------------------------------------------------------
 Center     Atomic      Atomic             Coordinates (Angstroms)
 Number     Number       Type             X           Y           Z
 ---------------------------------------------------------------------
      1          6           0       -0.233072    0.490378    0.000000
      2          6           0       -0.234664   -0.228346    1.200300
      3          6           0       -0.234664   -1.621451    1.203425
      4          6           0       -0.233876   -2.323636    0.000000
      5          6           0       -0.234664   -1.621451   -1.203425
      6          6           0       -0.234664   -0.228346   -1.200300
      7          6           0       -0.192881    2.003569    0.000000
      8          6           0        1.238582    2.565418    0.000000
      9          1           0       -0.240951    0.310192    2.144379
     10          1           0       -0.239932   -2.159034    2.146756
     11          1           0       -0.237265   -3.408984    0.000000
     12          1           0       -0.239932   -2.159034   -2.146756
     13          1           0       -0.240951    0.310192   -2.144379
     14          1           0       -0.729348    2.383355   -0.875920
     15          1           0       -0.729348    2.383355    0.875920
     16          1           0        1.792637    2.231906    0.881604
     17          1           0        1.792637    2.231906   -0.881604
     18          1           0        1.231882    3.659344    0.000000
 ---------------------------------------------------------------------
                    Distance matrix (angstroms):
                    1          2          3          4          5
     1  C    0.000000
     2  C    1.399031   0.000000
     3  C    2.430649   1.393109   0.000000
     4  C    2.814014   2.414738   1.393304   0.000000
     5  C    2.430649   2.778243   2.406850   1.393304   0.000000
     6  C    1.399031   2.400600   2.778243   2.414738   1.393109
     7  C    1.513725   2.534543   3.819784   4.327399   3.819784
     8  C    2.543925   3.378800   4.598756   5.105975   4.598756
     9  H    2.151950   1.086898   2.148646   3.396389   3.865110
    10  H    3.409984   2.150201   1.085770   2.153066   3.393042
    11  H    3.899364   3.399586   2.154881   1.085353   2.154881
    12  H    3.409984   3.863983   3.393042   2.153066   1.085770
    13  H    2.151950   3.387763   3.865110   3.396389   2.148646
    14  H    2.144035   3.372890   4.539478   4.813366   4.048511
    15  H    2.144035   2.677857   4.048511   4.813366   4.539478
    16  H    2.813120   3.203803   4.365991   5.063294   4.827593
    17  H    2.813120   3.807508   4.827593   5.063294   4.365991
    18  H    3.491194   4.324998   5.611220   6.159910   5.611220
                    6          7          8          9         10
     6  C    0.000000
     7  C    2.534543   0.000000
     8  C    3.378800   1.537778   0.000000
     9  H    3.387763   2.732800   3.445783   0.000000
    10  H    3.863983   4.683806   5.395833   2.469227   0.000000
    11  H    3.399586   5.412735   6.153991   4.293093   2.484138
    12  H    2.150201   4.683806   5.395833   4.950850   4.293512
    13  H    1.086898   2.732800   3.445783   4.288758   4.950850
    14  H    2.677857   1.095112   2.161743   3.695774   5.478083
    15  H    3.372890   1.095112   2.161743   2.479017   4.742136
    16  H    3.807508   2.184410   1.093359   3.069701   5.001230
    17  H    3.203803   2.184410   1.093359   4.121291   5.708122
    18  H    4.324998   2.184386   1.093947   4.240804   6.374035
                   11         12         13         14         15
    11  H    0.000000
    12  H    2.484138   0.000000
    13  H    4.293093   2.469227   0.000000
    14  H    5.878824   4.742136   2.479017   0.000000
    15  H    5.878824   5.478083   3.695774   1.751840   0.000000
    16  H    6.059486   5.708122   4.121291   3.077700   2.526535
    17  H    6.059486   5.001230   3.069701   2.526535   3.077700
    18  H    7.219394   6.374035   4.240804   2.498361   2.498361
                   16         17         18
    16  H    0.000000
    17  H    1.763208   0.000000
    18  H    1.768969   1.768969   0.000000
 Stoichiometry    C8H10
 Framework group  CS[SG(C4H2),X(C4H8)]
 Deg. of freedom    27
 Full point group                 CS      NOp   2
 Largest Abelian subgroup         CS      NOp   2
 Largest concise Abelian subgroup CS      NOp   2
                         Standard orientation:                         
 ---------------------------------------------------------------------
 Center     Atomic      Atomic             Coordinates (Angstroms)
 Number     Number       Type             X           Y           Z
 ---------------------------------------------------------------------
      1          6           0       -0.233072    0.490378    0.000000
      2          6           0       -0.234664   -0.228346    1.200300
      3          6           0       -0.234664   -1.621451    1.203425
      4          6           0       -0.233876   -2.323636    0.000000
      5          6           0       -0.234664   -1.621451   -1.203425
      6          6           0       -0.234664   -0.228346   -1.200300
      7          6           0       -0.192881    2.003569   -0.000000
      8          6           0        1.238582    2.565418   -0.000000
      9          1           0       -0.240951    0.310192    2.144379
     10          1           0       -0.239932   -2.159034    2.146756
     11          1           0       -0.237265   -3.408984    0.000000
     12          1           0       -0.239932   -2.159034   -2.146756
     13          1           0       -0.240951    0.310192   -2.144379
     14          1           0       -0.729348    2.383355   -0.875920
     15          1           0       -0.729348    2.383355    0.875920
     16          1           0        1.792637    2.231906    0.881604
     17          1           0        1.792637    2.231906   -0.881604
     18          1           0        1.231882    3.659344   -0.000000
 ---------------------------------------------------------------------
 Rotational constants (GHZ):           4.5513823           1.4552292           1.2082950
 General basis read from cards:  (5D, 7F)
 There are   248 symmetry adapted cartesian basis functions of A'  symmetry.
 There are   182 symmetry adapted cartesian basis functions of A"  symmetry.
 There are   216 symmetry adapted basis functions of A'  symmetry.
 There are   164 symmetry adapted basis functions of A"  symmetry.
   380 basis functions,   588 primitive gaussians,   430 cartesian basis functions
    29 alpha electrons       29 beta electrons
       nuclear repulsion energy       339.6864753298 Hartrees.
 NAtoms=   18 NActive=   18 NUniq=   12 SFac= 2.25D+00 NAtFMM=   60 NAOKFM=F Big=F
 Integral buffers will be    131072 words long.
 Raffenetti 2 integral format.
 Two-electron integral symmetry is turned on.
 One-electron integrals computed using PRISM.
 NBasis=   380 RedAO= T EigKep=  1.69D-05  NBF=   216   164
 NBsUse=   380 1.00D-06 EigRej= -1.00D+00 NBFU=   216   164
 ExpMin= 7.42D-02 ExpMax= 7.32D+03 ExpMxC= 2.50D+02 IAcc=3 IRadAn=         5 AccDes= 0.00D+00
 Harris functional with IExCor=  402 and IRadAn=       5 diagonalized for initial guess.
 HarFok:  IExCor=  402 AccDes= 0.00D+00 IRadAn=         5 IDoV= 1 UseB2=F ITyADJ=14
 ICtDFT=  3500011 ScaDFX=  1.000000  1.000000  1.000000  1.000000
 FoFCou: FMM=F IPFlag=           0 FMFlag=      100000 FMFlg1=           0
         NFxFlg=           0 DoJE=T BraDBF=F KetDBF=T FulRan=T
         wScrn=  0.000000 ICntrl=       500 IOpCl=  0 I1Cent=   200000004 NGrid=           0
         NMat0=    1 NMatS0=      1 NMatT0=    0 NMatD0=    1 NMtDS0=    0 NMtDT0=    0
 Petite list used in FoFCou.
 Initial guess orbital symmetries:
       Occupied  (A') (A') (A') (A") (A') (A') (A") (A') (A') (A')
                 (A") (A') (A') (A") (A') (A') (A") (A') (A') (A")
                 (A") (A') (A') (A") (A') (A') (A") (A") (A')
       Virtual   (A") (A') (A') (A') (A') (A") (A') (A') (A") (A')
                 (A") (A') (A") (A') (A') (A') (A') (A') (A") (A")
                 (A') (A") (A') (A") (A') (A") (A') (A") (A') (A')
                 (A') (A") (A') (A") (A') (A") (A') (A") (A') (A')
                 (A") (A') (A") (A') (A') (A') (A") (A') (A') (A")
                 (A") (A') (A') (A") (A') (A') (A") (A") (A') (A')
                 (A') (A") (A') (A") (A') (A') (A") (A") (A') (A')
                 (A") (A') (A") (A") (A') (A') (A") (A') (A') (A")
                 (A") (A") (A') (A') (A') (A') (A") (A') (A") (A")
                 (A') (A") (A') (A") (A') (A") (A') (A') (A') (A")
                 (A') (A") (A') (A") (A') (A') (A") (A") (A') (A')
                 (A") (A') (A") (A') (A") (A") (A') (A') (A') (A')
                 (A") (A') (A") (A') (A') (A") (A') (A") (A') (A")
                 (A') (A') (A") (A') (A") (A") (A') (A') (A') (A")
                 (A') (A") (A") (A') (A') (A") (A') (A") (A') (A')
                 (A") (A') (A") (A') (A') (A") (A') (A") (A') (A')
                 (A") (A') (A') (A") (A') (A') (A") (A") (A") (A")
                 (A') (A') (A') (A') (A") (A') (A") (A') (A") (A")
                 (A') (A') (A") (A") (A') (A") (A') (A') (A") (A')
                 (A') (A") (A') (A") (A") (A') (A") (A') (A") (A')
                 (A") (A') (A") (A') (A') (A') (A") (A") (A') (A")
                 (A') (A") (A') (A") (A") (A') (A") (A') (A") (A')
                 (A') (A") (A') (A") (A') (A") (A') (A') (A") (A")
                 (A') (A") (A') (A') (A') (A") (A") (A') (A") (A")
                 (A') (A') (A") (A") (A') (A") (A') (A') (A') (A")
                 (A') (A") (A') (A') (A") (A') (A") (A') (A") (A')
                 (A') (A') (A") (A') (A") (A") (A') (A") (A') (A")
                 (A") (A") (A') (A') (A') (A") (A') (A") (A') (A")
                 (A') (A') (A") (A") (A') (A') (A') (A") (A') (A")
                 (A') (A') (A') (A") (A") (A') (A') (A") (A") (A')
                 (A') (A") (A') (A") (A') (A") (A') (A") (A') (A')
                 (A") (A') (A') (A") (A') (A") (A") (A') (A") (A')
                 (A") (A') (A") (A") (A') (A") (A') (A") (A') (A')
                 (A") (A') (A') (A") (A') (A") (A") (A') (A") (A')
                 (A') (A') (A") (A') (A") (A') (A') (A") (A") (A')
                 (A')
 The electronic state of the initial guess is 1-A'.
 Requested convergence on RMS density matrix=1.00D-08 within 128 cycles.
 Requested convergence on MAX density matrix=1.00D-06.
 Requested convergence on             energy=1.00D-06.
 No special actions if energy rises.
 Integral accuracy reduced to 1.0D-05 until final iterations.
 Initial convergence to 1.0D-05 achieved.  Increase integral accuracy.
 SCF Done:  E(RB3LYP) =  -311.000217446     A.U. after   12 cycles
            NFock= 12  Conv=0.90D-08     -V/T= 2.0044

 **********************************************************************

            Population analysis using the SCF Density.

 **********************************************************************

 Orbital symmetries:
       Occupied  (A') (A') (A') (A") (A') (A") (A') (A') (A') (A')
                 (A") (A') (A') (A") (A') (A') (A") (A') (A') (A")
                 (A") (A') (A') (A') (A") (A") (A') (A") (A')
       Virtual   (A") (A') (A') (A') (A") (A') (A') (A") (A') (A")
                 (A') (A") (A') (A') (A') (A') (A') (A") (A") (A')
                 (A") (A') (A") (A') (A') (A") (A') (A') (A") (A')
                 (A") (A') (A") (A") (A') (A') (A') (A') (A") (A')
                 (A") (A') (A") (A') (A') (A') (A") (A') (A") (A')
                 (A") (A') (A') (A") (A') (A') (A") (A') (A") (A")
                 (A') (A') (A') (A') (A") (A') (A") (A") (A') (A")
                 (A') (A") (A') (A") (A') (A") (A') (A') (A") (A')
                 (A") (A") (A') (A') (A') (A') (A") (A") (A') (A")
                 (A") (A') (A') (A") (A") (A') (A') (A') (A') (A")
                 (A') (A") (A') (A') (A') (A") (A") (A") (A') (A')
                 (A") (A") (A') (A') (A") (A") (A') (A') (A') (A')
                 (A") (A") (A') (A') (A') (A") (A") (A') (A') (A")
                 (A') (A') (A") (A') (A") (A") (A') (A') (A') (A')
                 (A") (A") (A") (A') (A") (A') (A') (A') (A") (A")
                 (A') (A') (A") (A') (A') (A") (A') (A') (A") (A')
                 (A") (A') (A') (A") (A') (A') (A") (A") (A") (A")
                 (A') (A') (A') (A') (A") (A') (A") (A') (A") (A")
                 (A') (A') (A") (A") (A') (A') (A") (A') (A") (A')
                 (A') (A") (A') (A") (A') (A") (A") (A') (A") (A')
                 (A") (A") (A') (A') (A') (A") (A') (A") (A") (A')
                 (A") (A') (A') (A") (A") (A') (A") (A') (A") (A')
                 (A") (A') (A') (A") (A') (A") (A') (A') (A") (A")
                 (A') (A") (A') (A') (A") (A') (A") (A') (A') (A")
                 (A") (A") (A') (A") (A') (A') (A") (A') (A") (A')
                 (A') (A") (A') (A') (A") (A') (A') (A") (A") (A')
                 (A') (A") (A') (A') (A") (A") (A') (A") (A') (A")
                 (A") (A") (A') (A') (A') (A") (A') (A') (A") (A")
                 (A') (A") (A') (A") (A') (A') (A') (A") (A') (A")
                 (A') (A') (A') (A") (A") (A') (A") (A') (A") (A')
                 (A') (A') (A") (A") (A') (A") (A') (A") (A') (A')
                 (A') (A") (A') (A") (A') (A") (A") (A') (A") (A')
                 (A") (A") (A') (A') (A") (A") (A") (A') (A') (A')
                 (A") (A') (A') (A") (A') (A") (A") (A') (A") (A')
                 (A') (A') (A") (A') (A") (A') (A') (A") (A") (A')
                 (A')
 The electronic state is 1-A'.
 Alpha  occ. eigenvalues --  -10.18138 -10.17564 -10.17479 -10.17471 -10.17276
 Alpha  occ. eigenvalues --  -10.17252 -10.17249 -10.16443  -0.85895  -0.78790
 Alpha  occ. eigenvalues --   -0.74576  -0.72402  -0.63519  -0.60683  -0.57866
 Alpha  occ. eigenvalues --   -0.51330  -0.47018  -0.46012  -0.43255  -0.42596
 Alpha  occ. eigenvalues --   -0.41867  -0.39920  -0.37629  -0.35653  -0.35519
 Alpha  occ. eigenvalues --   -0.33677  -0.33472  -0.25677  -0.24830
 Alpha virt. eigenvalues --   -0.01473  -0.01401   0.01473   0.03009   0.03633
 Alpha virt. eigenvalues --    0.05021   0.05908   0.06274   0.08115   0.09745
 Alpha virt. eigenvalues --    0.10478   0.10769   0.12278   0.13286   0.14996
 Alpha virt. eigenvalues --    0.16168   0.17682   0.17741   0.18750   0.18974
 Alpha virt. eigenvalues --    0.20291   0.21178   0.21491   0.22751   0.24561
 Alpha virt. eigenvalues --    0.25475   0.26429   0.28267   0.28342   0.29496
 Alpha virt. eigenvalues --    0.30029   0.30156   0.31682   0.32488   0.32559
 Alpha virt. eigenvalues --    0.33047   0.34308   0.34424   0.34629   0.35666
 Alpha virt. eigenvalues --    0.35703   0.36539   0.36833   0.37569   0.39043
 Alpha virt. eigenvalues --    0.40139   0.42878   0.43406   0.45449   0.46269
 Alpha virt. eigenvalues --    0.46700   0.48140   0.50847   0.53900   0.54393
 Alpha virt. eigenvalues --    0.56634   0.60172   0.61780   0.63207   0.65047
 Alpha virt. eigenvalues --    0.65779   0.67152   0.70077   0.72134   0.73641
 Alpha virt. eigenvalues --    0.73971   0.76332   0.80585   0.81082   0.84567
 Alpha virt. eigenvalues --    0.84865   0.87166   0.87297   0.89360   0.92223
 Alpha virt. eigenvalues --    0.96011   0.96894   0.99166   0.99515   1.00848
 Alpha virt. eigenvalues --    1.03330   1.04270   1.04788   1.05045   1.06208
 Alpha virt. eigenvalues --    1.06877   1.09044   1.09338   1.09496   1.11278
 Alpha virt. eigenvalues --    1.12967   1.13472   1.15128   1.17298   1.17892
 Alpha virt. eigenvalues --    1.18096   1.21268   1.22820   1.24482   1.25413
 Alpha virt. eigenvalues --    1.25604   1.26494   1.27316   1.30086   1.30619
 Alpha virt. eigenvalues --    1.30884   1.32319   1.33682   1.35158   1.36655
 Alpha virt. eigenvalues --    1.39877   1.41220   1.41914   1.45247   1.45437
 Alpha virt. eigenvalues --    1.46802   1.49080   1.50662   1.51687   1.56844
 Alpha virt. eigenvalues --    1.58173   1.60899   1.61146   1.61892   1.63701
 Alpha virt. eigenvalues --    1.64564   1.65492   1.66129   1.68696   1.69358
 Alpha virt. eigenvalues --    1.74817   1.75571   1.76862   1.77438   1.79455
 Alpha virt. eigenvalues --    1.80773   1.83892   1.85011   1.90097   1.91502
 Alpha virt. eigenvalues --    1.92876   1.93730   1.96120   1.97382   1.98845
 Alpha virt. eigenvalues --    1.98998   1.99847   2.03722   2.04237   2.07106
 Alpha virt. eigenvalues --    2.11007   2.13840   2.18317   2.19091   2.21005
 Alpha virt. eigenvalues --    2.22728   2.27790   2.33057   2.33067   2.39405
 Alpha virt. eigenvalues --    2.41444   2.42380   2.54922   2.56005   2.61193
 Alpha virt. eigenvalues --    2.63595   2.67517   2.70583   2.77432   2.87108
 Alpha virt. eigenvalues --    2.91205   2.95194   3.06060   3.10456   3.15263
 Alpha virt. eigenvalues --    3.15823   3.18266   3.18455   3.20470   3.23410
 Alpha virt. eigenvalues --    3.24429   3.27572   3.29249   3.30446   3.31308
 Alpha virt. eigenvalues --    3.35069   3.35284   3.36524   3.38883   3.40865
 Alpha virt. eigenvalues --    3.45749   3.46784   3.49411   3.50792   3.56193
 Alpha virt. eigenvalues --    3.56375   3.56941   3.60350   3.63898   3.66173
 Alpha virt. eigenvalues --    3.67044   3.70178   3.70443   3.73432   3.79483
 Alpha virt. eigenvalues --    3.80208   3.81211   3.82528   3.84551   3.84707
 Alpha virt. eigenvalues --    3.86753   3.88674   3.90690   3.94277   3.95151
 Alpha virt. eigenvalues --    3.98333   3.98832   3.99334   4.00694   4.03552
 Alpha virt. eigenvalues --    4.05275   4.05833   4.06493   4.07845   4.08836
 Alpha virt. eigenvalues --    4.11064   4.13538   4.15364   4.17130   4.19699
 Alpha virt. eigenvalues --    4.21005   4.21378   4.22616   4.23488   4.24924
 Alpha virt. eigenvalues --    4.25478   4.25794   4.27251   4.30241   4.31127
 Alpha virt. eigenvalues --    4.31368   4.32941   4.33339   4.34804   4.35682
 Alpha virt. eigenvalues --    4.36352   4.36382   4.37389   4.41002   4.41584
 Alpha virt. eigenvalues --    4.43396   4.44732   4.45577   4.46323   4.46337
 Alpha virt. eigenvalues --    4.48108   4.50466   4.51327   4.52554   4.53372
 Alpha virt. eigenvalues --    4.54827   4.54850   4.57264   4.59258   4.59575
 Alpha virt. eigenvalues --    4.61292   4.62821   4.63601   4.66462   4.66914
 Alpha virt. eigenvalues --    4.68396   4.71702   4.72865   4.74447   4.75376
 Alpha virt. eigenvalues --    4.76263   4.76690   4.78179   4.79238   4.82632
 Alpha virt. eigenvalues --    4.84280   4.88174   4.88993   4.90029   4.92338
 Alpha virt. eigenvalues --    4.95406   4.96249   4.98663   5.01349   5.03046
 Alpha virt. eigenvalues --    5.03228   5.05985   5.07237   5.09686   5.13053
 Alpha virt. eigenvalues --    5.13406   5.15446   5.15625   5.20290   5.24771
 Alpha virt. eigenvalues --    5.25782   5.26239   5.26504   5.31478   5.32786
 Alpha virt. eigenvalues --    5.33741   5.35843   5.36159   5.40142   5.44193
 Alpha virt. eigenvalues --    5.47574   5.48078   5.49219   5.49925   5.51711
 Alpha virt. eigenvalues --    5.55244   5.55762   5.59242   5.61223   5.64134
 Alpha virt. eigenvalues --    5.64911   5.69392   5.71247   5.73434   5.73944
 Alpha virt. eigenvalues --    5.76082   5.79461   5.80435   5.82636   5.84469
 Alpha virt. eigenvalues --    5.87574   5.89900   5.91966   5.97819   6.00425
 Alpha virt. eigenvalues --    6.04219   6.06661   6.07047   6.11105   6.15122
 Alpha virt. eigenvalues --    6.20030   6.23290   6.25222   6.33559   6.37598
 Alpha virt. eigenvalues --    6.46425   6.52149   6.73697   7.08353   7.33089
 Alpha virt. eigenvalues --   11.42035
          Condensed to atoms (all electrons):
               1          2          3          4          5          6
     1  C    4.896838   0.452548  -0.036478  -0.092976  -0.036478   0.452548
     2  C    0.452548   5.030564   0.450336  -0.019841  -0.073519  -0.041828
     3  C   -0.036478   0.450336   4.873476   0.452105  -0.030909  -0.073519
     4  C   -0.092976  -0.019841   0.452105   4.884453   0.452105  -0.019841
     5  C   -0.036478  -0.073519  -0.030909   0.452105   4.873476   0.450336
     6  C    0.452548  -0.041828  -0.073519  -0.019841   0.450336   5.030564
     7  C    0.332587  -0.074626   0.009968  -0.004387   0.009968  -0.074626
     8  C   -0.029219  -0.007829  -0.002026   0.000114  -0.002026  -0.007829
     9  H   -0.074703   0.478213  -0.053497   0.017141  -0.005393   0.015354
    10  H    0.014074  -0.051649   0.456026  -0.056249   0.014965  -0.004770
    11  H   -0.003336   0.013889  -0.054740   0.456620  -0.054740   0.013889
    12  H    0.014074  -0.004770   0.014965  -0.056249   0.456026  -0.051649
    13  H   -0.074703   0.015354  -0.005393   0.017141  -0.053497   0.478213
    14  H   -0.046295   0.009657  -0.001343   0.000119   0.000184  -0.010840
    15  H   -0.046295  -0.010840   0.000184   0.000119  -0.001343   0.009657
    16  H   -0.007296   0.002714  -0.000689  -0.000022   0.000000  -0.000936
    17  H   -0.007296  -0.000936   0.000000  -0.000022  -0.000689   0.002714
    18  H    0.014869  -0.000290   0.000191  -0.000066   0.000191  -0.000290
               7          8          9         10         11         12
     1  C    0.332587  -0.029219  -0.074703   0.014074  -0.003336   0.014074
     2  C   -0.074626  -0.007829   0.478213  -0.051649   0.013889  -0.004770
     3  C    0.009968  -0.002026  -0.053497   0.456026  -0.054740   0.014965
     4  C   -0.004387   0.000114   0.017141  -0.056249   0.456620  -0.056249
     5  C    0.009968  -0.002026  -0.005393   0.014965  -0.054740   0.456026
     6  C   -0.074626  -0.007829   0.015354  -0.004770   0.013889  -0.051649
     7  C    4.776564   0.302668  -0.008121  -0.000533   0.000170  -0.000533
     8  C    0.302668   4.631262  -0.001315   0.000047   0.000007   0.000047
     9  H   -0.008121  -0.001315   0.643026  -0.010910  -0.000194   0.000103
    10  H   -0.000533   0.000047  -0.010910   0.631563  -0.010772  -0.000106
    11  H    0.000170   0.000007  -0.000194  -0.010772   0.630588  -0.010772
    12  H   -0.000533   0.000047   0.000103  -0.000106  -0.010772   0.631563
    13  H   -0.008121  -0.001315   0.000040   0.000103  -0.000194  -0.010910
    14  H    0.447592  -0.047867   0.000710   0.000041  -0.000005  -0.000044
    15  H    0.447592  -0.047867   0.001098  -0.000044  -0.000005   0.000041
    16  H   -0.028643   0.419366   0.000476   0.000030  -0.000001   0.000001
    17  H   -0.028643   0.419366  -0.000020   0.000001  -0.000001   0.000030
    18  H   -0.043252   0.424471  -0.000206  -0.000002   0.000000  -0.000002
              13         14         15         16         17         18
     1  C   -0.074703  -0.046295  -0.046295  -0.007296  -0.007296   0.014869
     2  C    0.015354   0.009657  -0.010840   0.002714  -0.000936  -0.000290
     3  C   -0.005393  -0.001343   0.000184  -0.000689   0.000000   0.000191
     4  C    0.017141   0.000119   0.000119  -0.000022  -0.000022  -0.000066
     5  C   -0.053497   0.000184  -0.001343   0.000000  -0.000689   0.000191
     6  C    0.478213  -0.010840   0.009657  -0.000936   0.002714  -0.000290
     7  C   -0.008121   0.447592   0.447592  -0.028643  -0.028643  -0.043252
     8  C   -0.001315  -0.047867  -0.047867   0.419366   0.419366   0.424471
     9  H    0.000040   0.000710   0.001098   0.000476  -0.000020  -0.000206
    10  H    0.000103   0.000041  -0.000044   0.000030   0.000001  -0.000002
    11  H   -0.000194  -0.000005  -0.000005  -0.000001  -0.000001   0.000000
    12  H   -0.010910  -0.000044   0.000041   0.000001   0.000030  -0.000002
    13  H    0.643026   0.001098   0.000710  -0.000020   0.000476  -0.000206
    14  H    0.001098   0.648801  -0.027379   0.009624  -0.006644  -0.006044
    15  H    0.000710  -0.027379   0.648801  -0.006644   0.009624  -0.006044
    16  H   -0.000020   0.009624  -0.006644   0.638088  -0.024646  -0.027034
    17  H    0.000476  -0.006644   0.009624  -0.024646   0.638088  -0.027034
    18  H   -0.000206  -0.006044  -0.006044  -0.027034  -0.027034   0.641637
 Mulliken charges:
               1
     1  C    0.277535
     2  C   -0.167147
     3  C    0.001344
     4  C   -0.030263
     5  C    0.001344
     6  C   -0.167147
     7  C   -0.055618
     8  C   -0.050057
     9  H   -0.001800
    10  H    0.018185
    11  H    0.019596
    12  H    0.018185
    13  H   -0.001800
    14  H    0.028635
    15  H    0.028635
    16  H    0.025633
    17  H    0.025633
    18  H    0.029108
 Sum of Mulliken charges =  -0.00000
 Mulliken charges with hydrogens summed into heavy atoms:
               1
     1  C    0.277535
     2  C   -0.168947
     3  C    0.019529
     4  C   -0.010668
     5  C    0.019529
     6  C   -0.168947
     7  C    0.001652
     8  C    0.030317
 Electronic spatial extent (au):  <R**2>=           1044.5455
 Charge=             -0.0000 electrons
 Dipole moment (field-independent basis, Debye):
    X=              0.0553    Y=              0.3926    Z=             -0.0000  Tot=              0.3964
 Quadrupole moment (field-independent basis, Debye-Ang):
   XX=            -53.3622   YY=            -45.8277   ZZ=            -45.8406
   XY=             -0.1126   XZ=             -0.0000   YZ=              0.0000
 Traceless Quadrupole moment (field-independent basis, Debye-Ang):
   XX=             -5.0187   YY=              2.5158   ZZ=              2.5029
   XY=             -0.1126   XZ=             -0.0000   YZ=              0.0000
 Octapole moment (field-independent basis, Debye-Ang**2):
  XXX=              2.6600  YYY=             -6.4199  ZZZ=              0.0000  XYY=             -1.4217
  XXY=              4.4233  XXZ=              0.0000  XZZ=             -0.6902  YZZ=             -2.1257
  YYZ=             -0.0000  XYZ=             -0.0000
 Hexadecapole moment (field-independent basis, Debye-Ang**3):
 XXXX=           -172.7544 YYYY=           -940.4939 ZZZZ=           -308.0211 XXXY=            -95.0635
 XXXZ=             -0.0000 YYYX=            -89.5130 YYYZ=              0.0000 ZZZX=             -0.0000
 ZZZY=             -0.0000 XXYY=           -205.2379 XXZZ=            -88.1651 YYZZ=           -208.7141
 XXYZ=             -0.0000 YYXZ=             -0.0000 ZZXY=            -29.7969
 N-N= 3.396864753298D+02 E-N=-1.400098644623D+03  KE= 3.096240465932D+02
 Symmetry A'   KE= 2.250392462378D+02
 Symmetry A"   KE= 8.458480035545D+01
 Calling FoFJK, ICntrl=      2127 FMM=F ISym2X=1 I1Cent= 0 IOpClX= 0 NMat=1 NMatS=1 NMatT=0.
 ***** Axes restored to original set *****
 -------------------------------------------------------------------
 Center     Atomic                   Forces (Hartrees/Bohr)
 Number     Number              X              Y              Z
 -------------------------------------------------------------------
      1        6          -0.000028548   -0.000694310   -0.000000000
      2        6          -0.000036125   -0.000170248   -0.000438594
      3        6          -0.000039273    0.000216717   -0.000392702
      4        6           0.000041188    0.000386651   -0.000000000
      5        6          -0.000039273    0.000216717    0.000392702
      6        6          -0.000036125   -0.000170248    0.000438594
      7        6          -0.000574092    0.000192039    0.000000000
      8        6           0.000978442    0.000489199    0.000000000
      9        1          -0.000011101   -0.001183880   -0.002108864
     10        1           0.000012157    0.001243672   -0.002200185
     11        1           0.000000826    0.002520507   -0.000000000
     12        1           0.000012157    0.001243672    0.002200185
     13        1          -0.000011101   -0.001183880    0.002108864
     14        1           0.001171561   -0.001015947    0.001216607
     15        1           0.001171561   -0.001015947   -0.001216607
     16        1          -0.001140214    0.000388417   -0.001265390
     17        1          -0.001140214    0.000388417    0.001265390
     18        1          -0.000331826   -0.001851548    0.000000000
 -------------------------------------------------------------------
 Cartesian Forces:  Max     0.002520507 RMS     0.000974552

 GradGradGradGradGradGradGradGradGradGradGradGradGradGradGradGradGradGrad
 Berny optimization.
 FormGI is forming the generalized inverse of G from B-inverse, IUseBI=4.
 Internal  Forces:  Max     0.003010422 RMS     0.001124355
 Search for a local minimum.
 Step number   1 out of a maximum of   97
 All quantities printed in internal units (Hartrees-Bohrs-Radians)
 Mixed Optimization -- RFO/linear search
 Second derivative matrix not updated -- first step.
 ITU=  0
     Eigenvalues ---    0.00266   0.00584   0.01483   0.02111   0.02137
     Eigenvalues ---    0.02144   0.02163   0.02177   0.02178   0.02179
     Eigenvalues ---    0.02179   0.03982   0.05357   0.05427   0.05447
     Eigenvalues ---    0.09401   0.12877   0.16000   0.16000   0.16000
     Eigenvalues ---    0.16000   0.16000   0.16000   0.16000   0.16000
     Eigenvalues ---    0.21932   0.22000   0.22000   0.23468   0.24989
     Eigenvalues ---    0.28717   0.30979   0.34229   0.34229   0.34361
     Eigenvalues ---    0.34427   0.34427   0.35174   0.35174   0.35306
     Eigenvalues ---    0.35306   0.35355   0.42124   0.42182   0.45985
     Eigenvalues ---    0.46309   0.46755   0.46782
 RFO step:  Lambda=-2.88681917D-04 EMin= 2.66219411D-03
 Linear search not attempted -- first point.
 Iteration  1 RMS(Cart)=  0.00586751 RMS(Int)=  0.00000361
 Iteration  2 RMS(Cart)=  0.00000421 RMS(Int)=  0.00000058
 Iteration  3 RMS(Cart)=  0.00000000 RMS(Int)=  0.00000058
 ClnCor:  largest displacement from symmetrization is 2.40D-10 for atom    17.
 Variable       Old X    -DE/DX   Delta X   Delta X   Delta X     New X
                                 (Linear)    (Quad)   (Total)
    R1        2.64378  -0.00301   0.00000  -0.00657  -0.00657   2.63721
    R2        2.64378  -0.00301   0.00000  -0.00657  -0.00657   2.63721
    R3        2.86053  -0.00242   0.00000  -0.00780  -0.00780   2.85272
    R4        2.63259  -0.00291   0.00000  -0.00622  -0.00622   2.62637
    R5        2.05394  -0.00242   0.00000  -0.00687  -0.00687   2.04707
    R6        2.63296  -0.00295   0.00000  -0.00630  -0.00630   2.62666
    R7        2.05181  -0.00253   0.00000  -0.00715  -0.00715   2.04466
    R8        2.63296  -0.00295   0.00000  -0.00630  -0.00630   2.62666
    R9        2.05102  -0.00252   0.00000  -0.00712  -0.00712   2.04390
   R10        2.63259  -0.00291   0.00000  -0.00622  -0.00622   2.62637
   R11        2.05181  -0.00253   0.00000  -0.00715  -0.00715   2.04466
   R12        2.05394  -0.00242   0.00000  -0.00687  -0.00687   2.04707
   R13        2.90598  -0.00174   0.00000  -0.00604  -0.00604   2.89994
   R14        2.06946  -0.00190   0.00000  -0.00554  -0.00554   2.06392
   R15        2.06946  -0.00190   0.00000  -0.00554  -0.00554   2.06392
   R16        2.06615  -0.00172   0.00000  -0.00498  -0.00498   2.06116
   R17        2.06615  -0.00172   0.00000  -0.00498  -0.00498   2.06116
   R18        2.06726  -0.00185   0.00000  -0.00538  -0.00538   2.06188
    A1        2.06254   0.00002   0.00000   0.00011   0.00011   2.06265
    A2        2.11015  -0.00001   0.00000  -0.00003  -0.00003   2.11011
    A3        2.11015  -0.00001   0.00000  -0.00003  -0.00003   2.11011
    A4        2.11257  -0.00001   0.00000  -0.00006  -0.00006   2.11251
    A5        2.08366  -0.00001   0.00000  -0.00008  -0.00008   2.08359
    A6        2.08694   0.00002   0.00000   0.00013   0.00013   2.08708
    A7        2.09674   0.00002   0.00000   0.00009   0.00009   2.09683
    A8        2.09101  -0.00000   0.00000   0.00001   0.00001   2.09102
    A9        2.09542  -0.00002   0.00000  -0.00010  -0.00010   2.09532
   A10        2.08521  -0.00004   0.00000  -0.00018  -0.00018   2.08503
   A11        2.09898   0.00002   0.00000   0.00009   0.00009   2.09907
   A12        2.09898   0.00002   0.00000   0.00009   0.00009   2.09907
   A13        2.09674   0.00002   0.00000   0.00009   0.00009   2.09683
   A14        2.09542  -0.00002   0.00000  -0.00010  -0.00010   2.09532
   A15        2.09101  -0.00000   0.00000   0.00001   0.00001   2.09102
   A16        2.11257  -0.00001   0.00000  -0.00006  -0.00006   2.11251
   A17        2.08366  -0.00001   0.00000  -0.00008  -0.00008   2.08359
   A18        2.08694   0.00002   0.00000   0.00013   0.00013   2.08708
   A19        1.97137   0.00040   0.00000   0.00086   0.00086   1.97223
   A20        1.91099  -0.00027   0.00000  -0.00249  -0.00249   1.90850
   A21        1.91099  -0.00027   0.00000  -0.00249  -0.00249   1.90850
   A22        1.90636  -0.00010   0.00000  -0.00027  -0.00027   1.90608
   A23        1.90636  -0.00010   0.00000  -0.00027  -0.00027   1.90608
   A24        1.85407   0.00035   0.00000   0.00495   0.00494   1.85902
   A25        1.93935  -0.00030   0.00000  -0.00182  -0.00183   1.93752
   A26        1.93935  -0.00030   0.00000  -0.00182  -0.00183   1.93752
   A27        1.93870  -0.00036   0.00000  -0.00237  -0.00237   1.93632
   A28        1.87583   0.00035   0.00000   0.00248   0.00248   1.87831
   A29        1.88403   0.00034   0.00000   0.00195   0.00195   1.88597
   A30        1.88403   0.00034   0.00000   0.00195   0.00195   1.88597
    D1        0.00259   0.00002   0.00000   0.00135   0.00135   0.00394
    D2       -3.13369   0.00003   0.00000   0.00155   0.00155  -3.13214
    D3       -3.11064  -0.00001   0.00000  -0.00056  -0.00056  -3.11120
    D4        0.03626  -0.00000   0.00000  -0.00036  -0.00036   0.03590
    D5       -0.00259  -0.00002   0.00000  -0.00135  -0.00135  -0.00394
    D6        3.13369  -0.00003   0.00000  -0.00155  -0.00155   3.13214
    D7        3.11064   0.00001   0.00000   0.00056   0.00056   3.11120
    D8       -0.03626   0.00000   0.00000   0.00036   0.00036  -0.03590
    D9        1.55622   0.00002   0.00000   0.00098   0.00098   1.55721
   D10       -2.59846  -0.00004   0.00000  -0.00058  -0.00058  -2.59904
   D11       -0.57228   0.00007   0.00000   0.00254   0.00254  -0.56973
   D12       -1.55622  -0.00002   0.00000  -0.00098  -0.00098  -1.55721
   D13        0.57228  -0.00007   0.00000  -0.00254  -0.00254   0.56973
   D14        2.59846   0.00004   0.00000   0.00058   0.00058   2.59904
   D15       -0.00067  -0.00000   0.00000  -0.00019  -0.00019  -0.00087
   D16       -3.13733  -0.00000   0.00000  -0.00029  -0.00029  -3.13762
   D17        3.13560  -0.00001   0.00000  -0.00039  -0.00039   3.13520
   D18       -0.00106  -0.00001   0.00000  -0.00049  -0.00049  -0.00155
   D19       -0.00130  -0.00002   0.00000  -0.00099  -0.00099  -0.00229
   D20       -3.13798   0.00000   0.00000   0.00007   0.00007  -3.13790
   D21        3.13534  -0.00002   0.00000  -0.00090  -0.00090   3.13445
   D22       -0.00133   0.00000   0.00000   0.00017   0.00017  -0.00116
   D23        0.00130   0.00002   0.00000   0.00099   0.00099   0.00229
   D24       -3.13534   0.00002   0.00000   0.00090   0.00090  -3.13445
   D25        3.13798  -0.00000   0.00000  -0.00007  -0.00007   3.13790
   D26        0.00133  -0.00000   0.00000  -0.00017  -0.00017   0.00116
   D27        0.00067   0.00000   0.00000   0.00019   0.00019   0.00087
   D28       -3.13560   0.00001   0.00000   0.00039   0.00039  -3.13520
   D29        3.13733   0.00000   0.00000   0.00029   0.00029   3.13762
   D30        0.00106   0.00001   0.00000   0.00049   0.00049   0.00155
   D31       -1.04389  -0.00002   0.00000  -0.00035  -0.00035  -1.04424
   D32        1.04389   0.00002   0.00000   0.00035   0.00035   1.04424
   D33        3.14159  -0.00000   0.00000  -0.00000   0.00000   3.14159
   D34        3.10819   0.00013   0.00000   0.00246   0.00246   3.11064
   D35       -1.08721   0.00017   0.00000   0.00316   0.00316  -1.08406
   D36        1.01049   0.00015   0.00000   0.00281   0.00281   1.01329
   D37        1.08721  -0.00017   0.00000  -0.00316  -0.00316   1.08406
   D38       -3.10819  -0.00013   0.00000  -0.00246  -0.00246  -3.11064
   D39       -1.01049  -0.00015   0.00000  -0.00281  -0.00281  -1.01329
         Item               Value     Threshold  Converged?
 Maximum Force            0.003010     0.000450     NO 
 RMS     Force            0.001124     0.000300     NO 
 Maximum Displacement     0.018923     0.001800     NO 
 RMS     Displacement     0.005869     0.001200     NO 
 Predicted change in Energy=-1.444672D-04
 GradGradGradGradGradGradGradGradGradGradGradGradGradGradGradGradGradGrad

                          Input orientation:                          
 ---------------------------------------------------------------------
 Center     Atomic      Atomic             Coordinates (Angstroms)
 Number     Number       Type             X           Y           Z
 ---------------------------------------------------------------------
      1          6           0       -0.231026    0.489898    0.000000
      2          6           0       -0.233711   -0.226968    1.197358
      3          6           0       -0.234227   -1.616779    1.200480
      4          6           0       -0.233099   -2.317393   -0.000000
      5          6           0       -0.234227   -1.616779   -1.200480
      6          6           0       -0.233711   -0.226968   -1.197358
      7          6           0       -0.191111    1.998965    0.000000
      8          6           0        1.236834    2.561025    0.000000
      9          1           0       -0.240621    0.309900    2.138200
     10          1           0       -0.240057   -2.152495    2.140515
     11          1           0       -0.236946   -3.398970   -0.000000
     12          1           0       -0.240057   -2.152495   -2.140515
     13          1           0       -0.240621    0.309900   -2.138200
     14          1           0       -0.725364    2.375085   -0.875192
     15          1           0       -0.725364    2.375085    0.875192
     16          1           0        1.788163    2.228122    0.880276
     17          1           0        1.788163    2.228122   -0.880276
     18          1           0        1.226510    3.652077    0.000000
 ---------------------------------------------------------------------
                    Distance matrix (angstroms):
                    1          2          3          4          5
     1  C    0.000000
     2  C    1.395553   0.000000
     3  C    2.424717   1.389815   0.000000
     4  C    2.807292   2.409054   1.389969   0.000000
     5  C    2.424717   2.771498   2.400959   1.389969   0.000000
     6  C    1.395553   2.394715   2.771498   2.409054   1.389815
     7  C    1.509595   2.527896   3.810068   4.316563   3.810068
     8  C    2.538539   3.371805   4.589032   5.095063   4.589032
     9  H    2.145784   1.083263   2.142767   3.387421   3.854726
    10  H    3.400607   2.144118   1.081985   2.146868   3.383677
    11  H    3.888873   3.390468   2.148805   1.081584   2.148805
    12  H    3.400607   3.853451   3.383677   2.146868   1.081985
    13  H    2.145784   3.378493   3.854726   3.387421   2.142767
    14  H    2.136413   3.362717   4.525992   4.798712   4.035097
    15  H    2.136413   2.667619   4.035097   4.798712   4.525992
    16  H    2.805963   3.196245   4.356128   5.051939   4.816935
    17  H    2.805963   3.798947   4.816935   5.051939   4.356128
    18  H    3.481923   4.314267   5.597834   6.145326   5.597834
                    6          7          8          9         10
     6  C    0.000000
     7  C    2.527896   0.000000
     8  C    3.371805   1.534581   0.000000
     9  H    3.378493   2.725306   3.438362   0.000000
    10  H    3.853451   4.671062   5.383334   2.462396   0.000000
    11  H    3.390468   5.398130   6.139509   4.281078   2.476997
    12  H    2.144118   4.671062   5.383334   4.936678   4.281029
    13  H    1.083263   2.725306   3.438362   4.276400   4.936678
    14  H    2.667619   1.092178   2.156561   3.685172   5.461593
    15  H    3.362717   1.092178   2.156561   2.468837   4.726050
    16  H    3.798947   2.178284   1.090722   3.062338   4.989157
    17  H    3.196245   2.178284   1.090722   4.111780   5.694617
    18  H    4.314267   2.177711   1.091101   4.230191   6.358119
                   11         12         13         14         15
    11  H    0.000000
    12  H    2.476997   0.000000
    13  H    4.281078   2.462396   0.000000
    14  H    5.860395   4.726050   2.468837   0.000000
    15  H    5.860395   5.461593   3.685172   1.750383   0.000000
    16  H    6.044842   5.694617   4.111780   3.069378   2.517825
    17  H    6.044842   4.989157   3.062338   2.517825   3.069378
    18  H    7.201317   6.358119   4.230191   2.491281   2.491281
                   16         17         18
    16  H    0.000000
    17  H    1.760552   0.000000
    18  H    1.765783   1.765783   0.000000
 Stoichiometry    C8H10
 Framework group  CS[SG(C4H2),X(C4H8)]
 Deg. of freedom    27
 Full point group                 CS      NOp   2
 Largest Abelian subgroup         CS      NOp   2
 Largest concise Abelian subgroup CS      NOp   2
                         Standard orientation:                         
 ---------------------------------------------------------------------
 Center     Atomic      Atomic             Coordinates (Angstroms)
 Number     Number       Type             X           Y           Z
 ---------------------------------------------------------------------
      1          6           0       -0.231692    0.489048    0.000000
      2          6           0       -0.234112   -0.227819    1.197358
      3          6           0       -0.234112   -1.617630    1.200480
      4          6           0       -0.232723   -2.318244   -0.000000
      5          6           0       -0.234112   -1.617630   -1.200480
      6          6           0       -0.234112   -0.227819   -1.197358
      7          6           0       -0.192338    1.998129    0.000000
      8          6           0        1.235398    2.560719    0.000000
      9          1           0       -0.241221    0.309046    2.138200
     10          1           0       -0.239743   -2.153349    2.140515
     11          1           0       -0.236168   -3.399823   -0.000000
     12          1           0       -0.239743   -2.153349   -2.140515
     13          1           0       -0.241221    0.309046   -2.138200
     14          1           0       -0.726731    2.374051   -0.875192
     15          1           0       -0.726731    2.374051    0.875192
     16          1           0        1.786851    2.228021    0.880276
     17          1           0        1.786851    2.228021   -0.880276
     18          1           0        1.224669    3.651768    0.000000
 ---------------------------------------------------------------------
 Rotational constants (GHZ):           4.5754493           1.4621839           1.2140286
 Basis read from rwf:  (5D, 7F)
 There are   248 symmetry adapted cartesian basis functions of A'  symmetry.
 There are   182 symmetry adapted cartesian basis functions of A"  symmetry.
 There are   216 symmetry adapted basis functions of A'  symmetry.
 There are   164 symmetry adapted basis functions of A"  symmetry.
   380 basis functions,   588 primitive gaussians,   430 cartesian basis functions
    29 alpha electrons       29 beta electrons
       nuclear repulsion energy       340.5453671818 Hartrees.
 NAtoms=   18 NActive=   18 NUniq=   12 SFac= 2.25D+00 NAtFMM=   60 NAOKFM=F Big=F
 Integral buffers will be    131072 words long.
 Raffenetti 2 integral format.
 Two-electron integral symmetry is turned on.
 One-electron integrals computed using PRISM.
 NBasis=   380 RedAO= T EigKep=  1.65D-05  NBF=   216   164
 NBsUse=   380 1.00D-06 EigRej= -1.00D+00 NBFU=   216   164
 Initial guess from the checkpoint file:  "/wrk/irikura/Gau-9741.chk"
 B after Tr=     0.000000    0.000000    0.000000
         Rot=    1.000000   -0.000000   -0.000000   -0.000123 Ang=  -0.01 deg.
 Initial guess orbital symmetries:
       Occupied  (A') (A') (A') (A") (A') (A") (A') (A') (A') (A')
                 (A") (A') (A') (A") (A') (A') (A") (A') (A') (A")
                 (A") (A') (A') (A') (A") (A") (A') (A") (A')
       Virtual   (A") (A') (A') (A') (A") (A') (A') (A") (A') (A")
                 (A') (A") (A') (A') (A') (A') (A') (A") (A") (A')
                 (A") (A') (A") (A') (A') (A") (A') (A') (A") (A')
                 (A") (A') (A") (A") (A') (A') (A') (A') (A") (A')
                 (A") (A') (A") (A') (A') (A') (A") (A') (A") (A')
                 (A") (A') (A') (A") (A') (A') (A") (A') (A") (A")
                 (A') (A') (A') (A') (A") (A') (A") (A") (A') (A")
                 (A') (A") (A') (A") (A') (A") (A') (A') (A") (A')
                 (A") (A") (A') (A') (A') (A') (A") (A") (A') (A")
                 (A") (A') (A') (A") (A") (A') (A') (A') (A') (A")
                 (A') (A") (A') (A') (A') (A") (A") (A") (A') (A')
                 (A") (A") (A') (A') (A") (A") (A') (A') (A') (A')
                 (A") (A") (A') (A') (A') (A") (A") (A') (A') (A")
                 (A') (A') (A") (A') (A") (A") (A') (A') (A') (A')
                 (A") (A") (A") (A') (A") (A') (A') (A') (A") (A")
                 (A') (A') (A") (A') (A') (A") (A') (A') (A") (A')
                 (A") (A') (A') (A") (A') (A') (A") (A") (A") (A")
                 (A') (A') (A') (A') (A") (A') (A") (A') (A") (A")
                 (A') (A') (A") (A") (A') (A') (A") (A') (A") (A')
                 (A') (A") (A') (A") (A') (A") (A") (A') (A") (A')
                 (A") (A") (A') (A') (A') (A") (A') (A") (A") (A')
                 (A") (A') (A') (A") (A") (A') (A") (A') (A") (A')
                 (A") (A') (A') (A") (A') (A") (A') (A') (A") (A")
                 (A') (A") (A') (A') (A") (A') (A") (A') (A') (A")
                 (A") (A") (A') (A") (A') (A') (A") (A') (A") (A')
                 (A') (A") (A') (A') (A") (A') (A') (A") (A") (A')
                 (A') (A") (A') (A') (A") (A") (A') (A") (A') (A")
                 (A") (A") (A') (A') (A') (A") (A') (A') (A") (A")
                 (A') (A") (A') (A") (A') (A') (A') (A") (A') (A")
                 (A') (A') (A') (A") (A") (A') (A") (A') (A") (A')
                 (A') (A') (A") (A") (A') (A") (A') (A") (A') (A')
                 (A') (A") (A') (A") (A') (A") (A") (A') (A") (A')
                 (A") (A") (A') (A') (A") (A") (A") (A') (A') (A')
                 (A") (A') (A') (A") (A') (A") (A") (A') (A") (A')
                 (A') (A') (A") (A') (A") (A') (A') (A") (A") (A')
                 (A')
 Requested convergence on RMS density matrix=1.00D-08 within 128 cycles.
 Requested convergence on MAX density matrix=1.00D-06.
 Requested convergence on             energy=1.00D-06.
 No special actions if energy rises.
 SCF Done:  E(RB3LYP) =  -311.000352681     A.U. after    8 cycles
            NFock=  8  Conv=0.53D-08     -V/T= 2.0041
 Calling FoFJK, ICntrl=      2127 FMM=F ISym2X=1 I1Cent= 0 IOpClX= 0 NMat=1 NMatS=1 NMatT=0.
 ***** Axes restored to original set *****
 -------------------------------------------------------------------
 Center     Atomic                   Forces (Hartrees/Bohr)
 Number     Number              X              Y              Z
 -------------------------------------------------------------------
      1        6          -0.000108457    0.000232742    0.000000000
      2        6           0.000020101    0.000014168    0.000193676
      3        6           0.000007335   -0.000112632    0.000230468
      4        6          -0.000022277   -0.000258558   -0.000000000
      5        6           0.000007335   -0.000112632   -0.000230468
      6        6           0.000020101    0.000014168   -0.000193676
      7        6          -0.000278591    0.000095484   -0.000000000
      8        6           0.000343862    0.000225954   -0.000000000
      9        1          -0.000003587    0.000034146    0.000069767
     10        1          -0.000002900   -0.000042817    0.000068745
     11        1           0.000003967   -0.000072403    0.000000000
     12        1          -0.000002900   -0.000042817   -0.000068745
     13        1          -0.000003587    0.000034146   -0.000069767
     14        1           0.000045240    0.000008307    0.000006822
     15        1           0.000045240    0.000008307   -0.000006822
     16        1          -0.000029379    0.000008185   -0.000022041
     17        1          -0.000029379    0.000008185    0.000022041
     18        1          -0.000012125   -0.000041932   -0.000000000
 -------------------------------------------------------------------
 Cartesian Forces:  Max     0.000343862 RMS     0.000108593

 GradGradGradGradGradGradGradGradGradGradGradGradGradGradGradGradGradGrad
 Berny optimization.
 Using GEDIIS/GDIIS optimizer.
 FormGI is forming the generalized inverse of G from B-inverse, IUseBI=4.
 Internal  Forces:  Max     0.000392149 RMS     0.000108274
 Search for a local minimum.
 Step number   2 out of a maximum of   97
 All quantities printed in internal units (Hartrees-Bohrs-Radians)
 Mixed Optimization -- En-DIIS/RFO-DIIS
 Update second derivatives using D2CorX and points    1    2
 DE= -1.35D-04 DEPred=-1.44D-04 R= 9.36D-01
 TightC=F SS=  1.41D+00  RLast= 2.95D-02 DXNew= 5.0454D-01 8.8473D-02
 Trust test= 9.36D-01 RLast= 2.95D-02 DXMaxT set to 3.00D-01
 ITU=  1  0
 Use linear search instead of GDIIS.
     Eigenvalues ---    0.00266   0.00584   0.01483   0.02111   0.02137
     Eigenvalues ---    0.02144   0.02163   0.02177   0.02178   0.02179
     Eigenvalues ---    0.02179   0.03989   0.05361   0.05451   0.05465
     Eigenvalues ---    0.09407   0.12875   0.15967   0.16000   0.16000
     Eigenvalues ---    0.16000   0.16000   0.16000   0.16000   0.16000
     Eigenvalues ---    0.21850   0.22000   0.22000   0.23461   0.24990
     Eigenvalues ---    0.28922   0.31297   0.33725   0.34229   0.34301
     Eigenvalues ---    0.34393   0.34427   0.35174   0.35196   0.35306
     Eigenvalues ---    0.35332   0.35366   0.42106   0.42210   0.45984
[...]
 987,0.309364858,-2.1385580076\H,-0.7249878646,2.3756014301,-0.87518825
 08\H,-0.7249878646,2.3756014301,0.8751882508\H,1.7886693673,2.22978483
 06,0.880269964\H,1.7886693673,2.2297848306,-0.880269964\H,1.2262655758
 ,3.6533604316,0.\\Version=ES64L-G16RevB.01\State=1-A'\HF=-311.0003539\
 RMSD=5.611e-09\RMSF=2.151e-05\ZeroPoint=0.1564268\Thermal=0.1637636\Di
 pole=0.0208959,0.1546339,0.\DipoleDeriv=-0.1070342,0.0511018,0.,0.0559
 683,0.3210056,0.,0.,0.,-0.0586033,-0.1290402,0.0001174,0.0005955,-0.02
 2392,-0.1318969,0.0477421,-0.0023613,0.1073204,0.0507546,-0.1314097,-0
 .0051592,-0.0023081,0.0029476,0.0202526,-0.045323,-0.0040901,-0.05343,
 0.0832876,-0.1455496,-0.0007734,0.,-0.0134119,0.0365188,0.,0.,0.,-0.08
 19132,-0.1314097,-0.0051592,0.0023081,0.0029476,0.0202526,0.045323,0.0
 040901,0.05343,0.0832876,-0.1290402,0.0001174,-0.0005955,-0.022392,-0.
 1318969,-0.0477421,0.0023613,-0.1073204,0.0507546,0.139174,-0.1345091,
 0.,-0.0070204,0.095706,0.,0.,0.,0.1469083,0.051194,0.0642293,0.,-0.029
 6639,0.0271422,0.,0.,0.,0.1034805,0.1228067,0.0061133,0.0013344,0.0058
 201,0.013025,-0.0900121,-0.0012639,-0.0794385,-0.0566243,0.131399,0.00
 08775,0.0029294,-0.0037414,0.011197,0.0725559,0.0026601,0.0821612,-0.0
 666129,0.1369312,0.0000346,0.,-0.0022517,-0.1123047,0.,0.,0.,0.0657525
 ,0.131399,0.0008775,-0.0029294,-0.0037414,0.011197,-0.0725559,-0.00266
 01,-0.0821612,-0.0666129,0.1228067,0.0061133,-0.0013344,0.0058201,0.01
 3025,0.0900121,0.0012639,0.0794385,-0.0566243,-0.0248353,0.0275916,-0.
 0705633,0.0030651,-0.0301005,0.0184575,-0.098372,0.0800358,-0.0696845,
 -0.0248353,0.0275916,0.0705633,0.0030651,-0.0301005,-0.0184575,0.09837
 2,-0.0800358,-0.0696845,-0.0187895,0.0017069,-0.046026,0.0365257,0.047
 0926,0.0710253,-0.0950749,0.0358386,-0.0675756,-0.0187895,0.0017069,0.
 046026,0.0365257,0.0470926,-0.0710253,0.0950749,-0.0358386,-0.0675756,
 0.0250225,-0.0425785,0.,-0.048071,-0.2272075,0.,0.,0.,0.0772854\Polar=
 62.9149035,5.5870817,117.0597298,0.,0.,96.3184271\Quadrupole=-3.702708
 8,1.8512296,1.8514791,-0.0810413,0.,0.\PG=CS [SG(C4H2),X(C4H8)]\NImag=
 0\\0.18221490,0.00693214,0.62881404,0.,0.,0.65671870,-0.06887028,-0.00
 095521,0.00199682,0.13702397,-0.00086210,-0.17208120,0.04573785,0.0008
 6548,0.68429033,0.00076135,0.11099428,-0.26349483,-0.00341215,0.036584
 06,0.70013580,0.00684220,-0.00038281,-0.00014195,-0.06418864,-0.000495
 50,0.00016739,0.13815588,0.00005876,-0.02782487,0.07777074,-0.00087398
 ,-0.33052787,-0.03199356,0.00113616,0.67563914,0.00077385,0.03008351,0
 .03478941,-0.00010702,0.03284376,-0.12931303,-0.00211829,-0.03333363,0
 .71823295,-0.00670194,-0.00039900,0.,0.00848798,0.00021452,-0.00022229
 ,-0.06505254,-0.00042875,0.00011423,0.13539802,0.00044262,0.00232660,0
 .,0.00005702,-0.02917590,-0.02975447,-0.00013822,-0.18026507,-0.119446
 62,0.00139980,0.74069594,0.,0.,-0.07033348,0.00059722,-0.07717603,0.03
 325959,0.00052071,-0.05518973,-0.27850822,0.,0.,0.65402359,0.00684220,
 -0.00038281,0.00014195,-0.00629893,0.00001843,-0.00004760,0.00849496,0
 .00014639,-0.00001021,-0.06505254,-0.00013822,-0.00052071,0.13815588,0
 .00005876,-0.02782487,-0.07777074,0.00062200,-0.05103991,0.02804169,0.
 00014639,0.06410144,0.02376514,-0.00042875,-0.18026507,0.05518973,0.00
 113616,0.67563914,-0.00077385,-0.03008351,0.03478941,-0.00030155,0.029
 68720,-0.01753610,0.00001021,-0.02376514,-0.06052451,-0.00011423,0.119
 44662,-0.27850822,0.00211829,0.03333363,0.71823295,-0.06887028,-0.0009
 5521,-0.00199682,0.00889641,-0.00089183,0.00034342,-0.00629893,0.00062
 200,0.00030155,0.00848798,0.00005702,-0.00059722,-0.06418864,-0.000873
 98,0.00010702,0.13702397,-0.00086210,-0.17208120,-0.04573785,-0.000891
 83,0.06227415,-0.02195099,0.00001843,-0.05103991,-0.02968720,0.0002145
 2,-0.02917590,0.07717603,-0.00049550,-0.33052787,-0.03284376,0.0008654
 8,0.68429033,-0.00076135,-0.11099428,-0.26349483,-0.00034342,0.0219509
 9,-0.05932405,0.00004760,-0.02804169,-0.01753610,0.00022229,0.02975447
 ,0.03325959,-0.00016739,0.03199356,-0.12931303,0.00341215,-0.03658406,
 0.70013580,-0.07102902,0.00611577,0.,0.00403342,-0.00011209,0.00048525
 ,0.00680336,0.00105857,-0.00042423,-0.00108173,-0.00101927,0.,0.006803
 36,0.00105857,0.00042423,0.00403342,-0.00011209,-0.00048525,0.46418607
 ,0.00020344,-0.19614005,0.,0.00083216,-0.02241592,0.00576455,0.0001727
 6,0.00230029,0.00124342,0.00020641,-0.00088315,0.,0.00017276,0.0023002
 9,-0.00124342,0.00083217,-0.02241592,-0.00576455,-0.04902117,0.4781773
 7,0.,0.,-0.09149327,0.00132811,0.02857631,0.00379962,0.00100347,0.0030
 2234,-0.00426742,0.,0.,-0.00171796,-0.00100347,-0.00302234,-0.00426742
 ,-0.00132811,-0.02857631,0.00379962,0.,0.,0.60043607,0.00046492,-0.013
 02758,0.,-0.00017182,0.00258196,-0.00098532,-0.00016685,-0.00049899,-0
 .00017090,0.00008456,0.00088674,0.,-0.00016685,-0.00049899,0.00017090,
 -0.00017182,0.00258196,0.00098532,-0.16254733,-0.02565876,0.,0.4642909
 9,-0.03289336,-0.01933850,0.,-0.00032317,-0.00050682,-0.00165392,0.001
 38947,-0.00009700,-0.00002676,-0.00017071,-0.00035886,0.,0.00138947,-0
 .00009700,0.00002676,-0.00032317,-0.00050682,0.00165392,-0.03261586,-0
 .08511258,0.,-0.04116332,0.55088201,0.,0.,0.00017794,-0.00047876,0.001
 73065,-0.00032593,-0.00038522,-0.00085231,-0.00048880,0.,0.,0.00096758
 ,0.00038522,0.00085231,-0.00048880,0.00047876,-0.00173065,-0.00032593,
 0.,0.,-0.07685930,0.,0.,0.56337619,0.00384057,0.00091003,0.00000483,-0
 .03705155,0.00082485,0.00216517,0.00329562,-0.00012774,-0.00006001,0.0
 0735748,-0.00001705,0.00007340,-0.00099830,0.00006086,-0.00001653,0.00
 668235,-0.00013518,-0.00018630,-0.00342138,-0.00059376,-0.00068859,0.0
 0018266,-0.00049289,0.00039256,0.02541324,0.00000437,0.01026903,0.0134
 7171,0.00104848,-0.12515481,-0.11599874,0.00001745,-0.01138931,-0.0296
 0631,-0.00000704,-0.00560060,0.00145207,-0.00000138,-0.00071197,0.0007
 3895,0.00001216,-0.00090630,0.00344361,-0.00042304,0.00110390,0.000955
 60,-0.00000339,0.00003326,0.00007869,-0.00093068,0.13112506,0.00023141
 ,-0.01571890,-0.02053617,0.00164718,-0.11597798,-0.26374273,-0.0000509
 0,0.00178457,0.00327197,0.00007853,0.00034146,0.00195113,-0.00000394,0
 .00093672,0.00014029,0.00009795,0.00403753,-0.00319130,0.00037240,-0.0
 0193098,0.00071653,-0.00007671,0.00041697,-0.00007344,-0.00191584,0.12
 610949,0.28077112,0.00745338,0.00024144,-0.00022022,0.00357477,-0.0000
 8667,0.00021925,-0.03748543,-0.00068381,0.00157159,0.00358686,-0.00007
 838,-0.00009314,0.00720720,-0.00005612,0.00005817,-0.00100058,0.000090
 15,0.00003361,0.00013132,-0.00019645,-0.00007482,0.00000166,-0.0000198
 8,0.00004104,-0.00417222,-0.00000547,-0.00005355,0.02580300,-0.0001644
 7,-0.00550531,-0.00133923,-0.00020871,-0.01098661,0.02941655,-0.000680
 93,-0.12709384,0.11800734,0.00008622,0.01194060,-0.01504274,-0.0000262
 0,-0.00076819,-0.00322092,0.00001536,-0.00083058,-0.00090864,0.0001174
 9,-0.00003609,0.00139725,0.00012529,-0.00010927,0.00000976,0.00001998,
 0.00112648,-0.00043614,0.00083354,0.13141973,0.00002369,-0.00052601,0.
 00192042,-0.00001375,-0.00177065,0.00337234,0.00142051,0.11803869,-0.2
 6705518,0.00016389,0.01613906,-0.01912155,0.00002011,-0.00412848,-0.00
 318472,0.00000991,-0.00086641,0.00027493,-0.00000381,-0.00022369,-0.00
 001434,-0.00004020,0.00004470,-0.00002029,-0.00002535,0.00042813,0.000
 84490,-0.00155713,-0.12779871,0.28298192,-0.00093492,0.00015481,0.,0.0
 0715973,-0.00006174,0.00004524,0.00306439,0.00005363,0.00011861,-0.036
 31365,-0.00116080,0.,0.00306439,0.00005363,-0.00011861,0.00715973,-0.0
 0006174,-0.00004524,-0.00092350,-0.00021121,0.,-0.00000753,-0.00011659
 ,0.,0.00024233,0.00003134,0.00001503,-0.00406906,0.00001459,-0.0000269
 7,0.02543212,-0.00001778,0.00062326,0.,-0.00001744,0.00070158,-0.00320
 796,-0.00006992,-0.01189099,0.00249169,-0.00105302,-0.33536457,0.,-0.0
 0006992,-0.01189099,-0.00249169,-0.00001744,0.00070158,0.00320796,0.00
 004641,0.00002320,0.,0.00000328,0.00001102,0.,0.00000356,-0.00068735,0
 .00017862,0.00001713,0.00085582,-0.00030251,0.00118176,0.35674727,0.,0
 .,-0.00139354,0.00002573,-0.00221466,-0.00444083,-0.00012725,-0.028768
 65,0.00464323,0.,0.,-0.05970519,0.00012725,0.02876865,0.00464323,-0.00
 002573,0.00221466,-0.00444083,0.,0.,0.00012637,0.,0.,0.00000970,0.0000
 0813,-0.00140661,-0.00000030,-0.00001096,0.00064773,0.00106417,0.,0.,0
 .05829704,0.00745338,0.00024144,0.00022022,-0.00100058,0.00009015,-0.0
 0003361,0.00720720,-0.00005612,-0.00005817,0.00358686,-0.00007838,0.00
 009314,-0.03748543,-0.00068381,-0.00157159,0.00357477,-0.00008667,-0.0
 0021925,0.00013132,-0.00019645,0.00007482,0.00000166,-0.00001988,-0.00
 004104,-0.00107616,0.00000097,-0.00001525,0.00017201,-0.00000927,-0.00
 001163,-0.00406906,0.00001713,0.00001096,0.02580300,-0.00016447,-0.005
 50531,0.00133923,0.00001536,-0.00083058,0.00090864,-0.00002620,-0.0007
 6819,0.00322092,0.00008622,0.01194060,0.01504274,-0.00068093,-0.127093
 84,-0.11800734,-0.00020871,-0.01098661,-0.02941655,0.00011749,-0.00003
 609,-0.00139725,0.00012529,-0.00010927,-0.00000976,0.00000677,0.000048
 97,-0.00010088,-0.00000927,0.00037966,0.00080716,0.00001459,0.00085582
 ,-0.00064773,0.00083354,0.13141973,-0.00002369,0.00052601,0.00192042,-
 0.00000991,0.00086641,0.00027493,-0.00002011,0.00412848,-0.00318472,-0
 .00016389,-0.01613906,-0.01912155,-0.00142051,-0.11803869,-0.26705518,
 0.00001375,0.00177065,0.00337234,0.00000381,0.00022369,-0.00001434,0.0
 0004020,-0.00004470,-0.00002029,0.00000622,-0.00009223,-0.00002289,0.0
 0001163,-0.00080716,-0.00103421,0.00002697,0.00030251,0.00106417,0.001
 55713,0.12779871,0.28298192,0.00384057,0.00091003,-0.00000483,0.006682
 35,-0.00013518,0.00018630,-0.00099830,0.00006086,0.00001653,0.00735748
 ,-0.00001705,-0.00007340,0.00329562,-0.00012774,0.00006001,-0.03705155
 ,0.00082485,-0.00216517,-0.00342138,-0.00059376,0.00068859,0.00018266,
 -0.00049289,-0.00039256,0.00017996,-0.00003289,-0.00003804,-0.00107616
 ,0.00000677,-0.00000622,0.00024233,0.00000356,-0.00000813,-0.00417222,
 0.00001998,0.00002535,0.02541324,0.00000437,0.01026903,-0.01347171,0.0
 0001216,-0.00090630,-0.00344361,-0.00000138,-0.00071197,-0.00073895,-0
 .00000704,-0.00560060,-0.00145207,0.00001745,-0.01138931,0.02960631,0.
 00104848,-0.12515481,0.11599874,-0.00042304,0.00110390,-0.00095560,-0.
 00000339,0.00003326,-0.00007869,-0.00003289,0.00052048,-0.00079084,0.0
 0000097,0.00004897,0.00009223,0.00003134,-0.00068735,0.00140661,-0.000
 00547,0.00112648,-0.00042813,-0.00093068,0.13112506,-0.00023141,0.0157
 1890,-0.02053617,-0.00009795,-0.00403753,-0.00319130,0.00000394,-0.000
 93672,0.00014029,-0.00007853,-0.00034146,0.00195113,0.00005090,-0.0017
 8457,0.00327197,-0.00164718,0.11597798,-0.26374273,-0.00037240,0.00193
 098,0.00071653,0.00007671,-0.00041697,-0.00007344,0.00003804,0.0007908
 4,-0.00112217,0.00001525,0.00010088,-0.00002289,-0.00001503,-0.0001786
 2,-0.00000030,0.00005355,0.00043614,0.00084490,0.00191584,-0.12610949,
 0.28077112,0.00042117,-0.00160655,0.00112737,0.00051885,-0.00005678,0.
 00015219,-0.00006353,-0.00070384,-0.00018847,0.00000495,0.00005360,0.0
 0040979,0.00000670,0.00025463,0.00005462,0.00048504,-0.00048092,-0.000
 31623,-0.10413327,0.04478303,-0.09710652,-0.01879662,0.00910742,-0.026
 66646,0.00006021,0.00000456,-0.00018984,-0.00007700,-0.00001650,0.0000
 1857,0.00001031,-0.00001943,0.00002113,-0.00003112,0.00002239,-0.00000
 800,-0.00004405,0.00025266,0.00040174,0.11636715,0.01498050,-0.0144539
 8,0.02830807,0.00050047,-0.00548762,-0.00181401,-0.00095308,-0.0001716
 7,0.00132550,0.00016224,-0.00008290,-0.00016815,-0.00031436,-0.0001182
 3,0.00007171,-0.00074684,0.00170174,0.00183163,0.04371965,-0.07681825,
 0.06711355,-0.00691006,0.00412122,-0.01052156,0.00035193,0.00004121,0.
 00003617,-0.00007263,-0.00045535,0.00003323,0.00005518,0.00000609,-0.0
 0008455,0.00003209,0.00002384,-0.00002189,0.00029633,0.00013577,-0.001
 07750,-0.04328613,0.08728413,0.00124275,0.00049913,-0.00051833,-0.0004
 5213,0.00088859,0.00035875,0.00002328,-0.00029795,-0.00017389,0.000032
 37,-0.00016592,0.00046320,0.00053518,0.00072460,0.00010155,0.00060572,
 -0.00208163,0.00041210,-0.09788351,0.06933722,-0.21584683,0.00033885,-
 0.00059515,0.00112407,-0.00007181,-0.00016623,0.00041691,-0.00001418,0
 .00006464,-0.00000691,-0.00014373,0.00003577,0.00005221,-0.00002965,0.
 00006088,0.00000582,-0.00054737,0.00018778,0.00042716,0.10889097,-0.07
 638093,0.23186490,0.00042117,-0.00160655,-0.00112737,0.00048504,-0.000
 48092,0.00031623,0.00000670,0.00025463,-0.00005462,0.00000495,0.000053
 60,-0.00040979,-0.00006353,-0.00070384,0.00018847,0.00051885,-0.000056
 78,-0.00015219,-0.10413327,0.04478304,0.09710652,-0.01879662,0.0091074
 2,0.02666646,-0.00004405,0.00025266,-0.00040174,-0.00003112,0.00002239
 ,0.00000800,0.00001031,-0.00001943,-0.00002113,-0.00007700,-0.00001650
 ,-0.00001857,0.00006021,0.00000456,0.00018984,0.00807261,-0.00617311,-
 0.01230591,0.11636715,0.01498050,-0.01445398,-0.02830807,-0.00074684,0
 .00170174,-0.00183163,-0.00031436,-0.00011823,-0.00007171,0.00016224,-
 0.00008290,0.00016815,-0.00095308,-0.00017167,-0.00132550,0.00050047,-
 0.00548762,0.00181401,0.04371965,-0.07681825,-0.06711355,-0.00691006,0
 .00412122,0.01052156,0.00029633,0.00013577,0.00107750,0.00003209,0.000
 02384,0.00002189,0.00005518,0.00000609,0.00008455,-0.00007263,-0.00045
 535,-0.00003323,0.00035193,0.00004121,-0.00003617,-0.00617311,0.003862
 38,0.00888346,-0.04328613,0.08728413,-0.00124275,-0.00049913,-0.000518
 33,-0.00060572,0.00208163,0.00041210,-0.00053518,-0.00072460,0.0001015
 5,-0.00003237,0.00016592,0.00046320,-0.00002328,0.00029795,-0.00017389
 ,0.00045213,-0.00088859,0.00035875,0.09788351,-0.06933722,-0.21584683,
 -0.00033885,0.00059515,0.00112407,0.00054737,-0.00018778,0.00042716,0.
 00002965,-0.00006088,0.00000582,0.00014373,-0.00003577,0.00005221,0.00
 001418,-0.00006464,-0.00000691,0.00007181,0.00016623,0.00041691,0.0123
 0591,-0.00888346,-0.02117081,-0.10889097,0.07638093,0.23186490,0.00114
 907,0.00192475,0.00033237,0.00035412,0.00010684,-0.00033582,0.00001459
 ,-0.00059705,0.00000261,-0.00004605,-0.00001852,0.00052532,-0.00003604
 ,0.00056377,-0.00019667,0.00023732,-0.00078233,-0.00029468,-0.01753539
 ,0.00879171,-0.02600888,-0.10882306,0.03996539,-0.10346010,-0.00023166
 ,-0.00003893,0.00025555,0.00000417,-0.00004383,-0.00000877,-0.00000696
 ,0.00000918,0.00003156,-0.00001175,-0.00001308,-0.00000414,-0.00002897
 ,0.00003471,0.00008942,-0.00560509,-0.00286152,0.00055035,0.00132842,0
 .00062905,0.00036626,0.12151709,0.00006635,0.00129820,-0.00097430,0.00
 015164,0.00034961,0.00015552,0.00005107,-0.00028389,-0.00006933,-0.000
 01435,0.00006257,0.00021061,-0.00001813,0.00017569,-0.00009724,0.00014
 237,-0.00024517,-0.00026461,-0.00671961,0.00288336,-0.01056273,0.04092
 009,-0.07312746,0.06649654,-0.00014497,0.00001915,0.00007643,-0.000017
 01,0.00002033,-0.00000943,-0.00000897,0.00000712,0.00001356,-0.0000059
 2,0.00001073,0.00000601,0.00001377,0.00001696,0.00008539,-0.00285959,-
 0.00024562,-0.00025410,0.00086886,0.00022166,0.00023575,-0.04231142,0.
 07501940,0.00023682,0.00047728,0.00042455,0.00019763,-0.00030378,0.000
 17458,0.00005372,-0.00021262,-0.00002497,-0.00000975,-0.00011023,0.000
 13193,-0.00002687,0.00015623,0.00000884,-0.00004099,-0.00032340,-0.000
 31370,0.00036553,-0.00072096,0.00083849,-0.10431166,0.06560486,-0.2199
 8557,-0.00005954,0.00002355,-0.00000261,-0.00000151,-0.00002215,0.0000
 0893,-0.00000369,-0.00000909,0.00000832,-0.00001056,-0.00000629,-0.000
 00790,0.00005472,0.00003853,0.00010436,0.00052694,0.00018378,0.0015854
 6,-0.00039531,-0.00036004,0.00083866,0.11505296,-0.07310811,0.23653459
 ,0.00114907,0.00192475,-0.00033237,0.00023732,-0.00078233,0.00029468,-
 0.00003604,0.00056377,0.00019667,-0.00004605,-0.00001852,-0.00052532,0
 .00001459,-0.00059705,-0.00000261,0.00035412,0.00010684,0.00033582,-0.
 01753539,0.00879171,0.02600888,-0.10882306,0.03996539,0.10346010,-0.00
 002897,0.00003471,-0.00008942,-0.00001175,-0.00001308,0.00000414,-0.00
 000696,0.00000918,-0.00003156,0.00000417,-0.00004383,0.00000877,-0.000
 23166,-0.00003893,-0.00025555,0.00132842,0.00062905,-0.00036626,-0.005
 60509,-0.00286152,-0.00055035,0.00848400,-0.00590030,-0.01297274,0.121
 51709,0.00006635,0.00129820,0.00097430,0.00014237,-0.00024517,0.000264
 61,-0.00001813,0.00017569,0.00009724,-0.00001435,0.00006257,-0.0002106
 1,0.00005107,-0.00028389,0.00006933,0.00015164,0.00034961,-0.00015552,
 -0.00671961,0.00288336,0.01056273,0.04092009,-0.07312746,-0.06649654,0
 .00001377,0.00001696,-0.00008539,-0.00000592,0.00001073,-0.00000601,-0
 .00000897,0.00000712,-0.00001356,-0.00001701,0.00002033,0.00000943,-0.
 00014497,0.00001915,-0.00007643,0.00086886,0.00022166,-0.00023575,-0.0
 0285959,-0.00024562,0.00025410,-0.00590030,0.00286760,0.00882808,-0.04
 231142,0.07501940,-0.00023682,-0.00047728,0.00042455,0.00004099,0.0003
 2340,-0.00031370,0.00002687,-0.00015623,0.00000884,0.00000975,0.000110
 23,0.00013193,-0.00005372,0.00021262,-0.00002497,-0.00019763,0.0003037
 8,0.00017458,-0.00036553,0.00072096,0.00083849,0.10431166,-0.06560486,
 -0.21998557,-0.00005472,-0.00003853,0.00010436,0.00001056,0.00000629,-
 0.00000790,0.00000369,0.00000909,0.00000832,0.00000151,0.00002215,0.00
 000893,0.00005954,-0.00002355,-0.00000261,0.00039531,0.00036004,0.0008
 3866,-0.00052694,-0.00018378,0.00158546,0.01297274,-0.00882808,-0.0211
 0713,-0.11505296,0.07310811,0.23653459,-0.00568617,-0.00003943,0.,0.00
 012784,-0.00073711,-0.00009969,0.00040536,0.00001551,0.00009629,-0.000
 06264,-0.00026599,0.,0.00040536,0.00001551,-0.00009629,0.00012784,-0.0
 0073711,0.00009969,-0.00036061,-0.03309761,0.,-0.04673754,0.00770716,0
 .,-0.00023012,0.00003612,0.00013718,-0.00001104,-0.00007863,0.00002502
 ,-0.00005399,-0.00000681,0.,-0.00001104,-0.00007863,-0.00002502,-0.000
 23012,0.00003612,-0.00013718,0.00147528,0.00059029,-0.00040492,0.00147
 528,0.00059029,0.00040492,-0.00076381,0.01578610,0.00134431,-0.0007638
 1,0.01578610,-0.00134431,0.05089395,-0.00283390,0.00031091,0.,-0.00022
 996,0.00004131,-0.00048101,0.00014880,-0.00003372,-0.00009804,-0.00000
 915,-0.00017335,0.,0.00014880,-0.00003372,0.00009804,-0.00022996,0.000
 04131,0.00048101,0.00121220,-0.01009934,0.,0.00652983,-0.30671096,0.,-
 0.00001293,0.00001005,0.00004564,0.00001630,-0.00004093,0.00002681,-0.
 00001600,-0.00002469,0.,0.00001630,-0.00004093,-0.00002681,-0.00001293
 ,0.00001005,-0.00004564,-0.00014433,0.00043559,-0.00050440,-0.00014433
 ,0.00043559,0.00050440,0.00054157,-0.00905024,-0.00013562,0.00054157,-
 0.00905024,0.00013562,-0.00552186,0.33397331,0.,0.,0.00115354,-0.00001
 134,0.00020978,-0.00010523,0.00010118,-0.00047198,-0.00011139,0.,0.,0.
 00041331,-0.00010118,0.00047198,-0.00011139,0.00001133,-0.00020978,-0.
 00010523,0.,0.,-0.00094403,0.,0.,-0.04813218,-0.00015704,0.00000380,0.
 00004725,0.00003475,-0.00001387,-0.00000545,0.,0.,0.00001201,-0.000034
 75,0.00001387,-0.00000545,0.00015704,-0.00000380,0.00004725,0.00017098
 ,-0.00031163,0.00006599,-0.00017098,0.00031163,0.00006599,0.00012992,0
 .02688813,0.00078318,-0.00012992,-0.02688813,0.00078318,0.,0.,0.046148
 63\\-0.00001325,-0.00003676,0.,0.00000369,0.00001383,0.00000848,0.0000
 0637,-0.00001406,-0.00000114,-0.00000365,0.00000117,0.,0.00000637,-0.0
 0001406,0.00000114,0.00000369,0.00001383,-0.00000848,0.00008244,0.0000
 2767,0.,-0.00010669,-0.00002714,0.,-0.00000181,-0.00000364,-0.00001324
 ,0.00000008,0.00000038,-0.00000884,0.00000076,0.00000899,0.,0.00000008
 ,0.00000038,0.00000884,-0.00000181,-0.00000364,0.00001324,-0.00001438,
 0.00000733,0.00000948,-0.00001438,0.00000733,-0.00000948,0.00000995,0.
 00000577,-0.00000395,0.00000995,0.00000577,0.00000395,0.00003261,0.000
 00685,0.\\\@


 IF THERE IS ONE WAY BETTER THAN ANOTHER IT IS THE WAY OF NATURE.

                          -- ARISTOTLE
 Job cpu time:       0 days  1 hours 44 minutes 23.1 seconds.
 Elapsed time:       0 days  0 hours  8 minutes 42.0 seconds.
 File lengths (MBytes):  RWF=    160 Int=      0 D2E=      0 Chk=     13 Scr=      1
 Normal termination of Gaussian 16 at Thu Jun 16 14:33:22 2022.
