 Entering Gaussian System, Link 0=g16
 AtFile(1): pcseg2.gbs
            -H     0
            S   4   1.00
                  0.754732D+02           0.427821D-02
                  0.113575D+02           0.328672D-01
                  0.260081D+01           0.159578D+00
                  0.735503D+00           0.500000D+00
            S   1   1.00
                  0.231761D+00           1.0000000
            S   1   1.00
                  0.741675D-01           1.0000000
            P   1   1.00
                  0.160000D+01           1.0000000
            P   1   1.00
                  0.450000D+00           1.0000000
            D   1   1.00
                  0.125000D+01           1.0000000
            ****
            -C     0
            S   7   1.00
                  0.731999D+04           0.695369D-03
                  0.109818D+04           0.537138D-02
                  0.250014D+03           0.274734D-01
                  0.707586D+02           0.105078D+00
                  0.228595D+02           0.291262D+00
                  0.803936D+01           0.500000D+00
                  0.289309D+01           0.362224D+00
            S   2   1.00
                  0.521640D+01          -0.957844D-01
                  0.556124D+00           0.500000D+00
            S   1   1.00
                  0.228813D+00           1.0000000
            S   1   1.00
                  0.936338D-01           1.0000000
            P   4   1.00
                  0.339855D+02           0.818395D-02
                  0.772957D+01           0.586921D-01
                  0.224954D+01           0.222514D+00
                  0.767681D+00           0.500000D+00
            P   1   1.00
                  0.263283D+00           1.0000000
            P   1   1.00
                  0.848744D-01           1.0000000
            D   1   1.00
                  0.140000D+01           1.0000000
            D   1   1.00
                  0.450000D+00           1.0000000
            F   1   1.00
                  0.950000D+00           1.0000000
            ****
            -O     0
            S   7   1.00
                  0.135887D+05           0.665492D-03
                  0.203847D+04           0.514222D-02
                  0.464041D+03           0.263472D-01
                  0.131339D+03           0.101500D+00
                  0.425340D+02           0.285877D+00
                  0.150429D+02           0.500000D+00
                  0.546616D+01           0.368211D+00
            S   2   1.00
                  0.100915D+02          -0.100084D+00
                  0.110429D+01           0.500000D+00
            S   1   1.00
                  0.448082D+00           1.0000000
            S   1   1.00
                  0.175325D+00           1.0000000
            P   4   1.00
                  0.608220D+02           0.908253D-02
                  0.140332D+02           0.645878D-01
                  0.418244D+01           0.241502D+00
                  0.142490D+01           0.500000D+00
            P   1   1.00
                  0.478741D+00           1.0000000
            P   1   1.00
                  0.146257D+00           1.0000000
            D   1   1.00
                  0.220000D+01           1.0000000
            D   1   1.00
                  0.650000D+00           1.0000000
            F   1   1.00
                  0.110000D+01           1.0000000
            ****
            -N     0
            S   7   1.00
                  0.101643D+05           0.682757D-03
                  0.152481D+04           0.527488D-02
                  0.347119D+03           0.270037D-01
                  0.982389D+02           0.103673D+00
                  0.317799D+02           0.289575D+00
                  0.112240D+02           0.500000D+00
                  0.406611D+01           0.364621D+00
            S   2   1.00
                  0.747898D+01          -0.975681D-01
                  0.805040D+00           0.500000D+00
            S   1   1.00
                  0.324626D+00           1.0000000
            S   1   1.00
                  0.128132D+00           1.0000000
            P   4   1.00
                  0.482704D+02           0.829547D-02
                  0.110815D+02           0.596223D-01
                  0.326643D+01           0.227889D+00
                  0.111680D+01           0.500000D+00
            P   1   1.00
                  0.382049D+00           1.0000000
            P   1   1.00
                  0.121222D+00           1.0000000
            D   1   1.00
                  0.180000D+01           1.0000000
            D   1   1.00
                  0.550000D+00           1.0000000
            F   1   1.00
                  0.102000D+01           1.0000000
            ****
            -F     0
            S   7   1.00
                  0.174507D+05           0.655972D-03
                  0.261768D+04           0.506944D-02
                  0.595857D+03           0.259899D-01
                  0.168651D+03           0.100353D+00
                  0.546654D+02           0.284095D+00
                  0.193717D+02           0.500000D+00
                  0.706202D+01           0.370721D+00
            S   2   1.00
                  0.131197D+02          -0.101997D+00
                  0.145046D+01           0.500000D+00
            S   1   1.00
                  0.588255D+00           1.0000000
            S   1   1.00
                  0.227960D+00           1.0000000
            P   4   1.00
                  0.779407D+02           0.931135D-02
                  0.180425D+02           0.663964D-01
                  0.542342D+01           0.246386D+00
                  0.184876D+01           0.500000D+00
            P   1   1.00
                  0.617455D+00           1.0000000
            P   1   1.00
                  0.185496D+00           1.0000000
            D   1   1.00
                  0.280000D+01           1.0000000
            D   1   1.00
                  0.800000D+00           1.0000000
            F   1   1.00
                  0.120000D+01           1.0000000
            ****
            -Cl     0
            S   8   1.00
                  0.154272D+06           0.222473D-03
                  0.231232D+05           0.172590D-02
                  0.526257D+04           0.899286D-02
                  0.148995D+04           0.367724D-01
                  0.485417D+03           0.121446D+00
                  0.174634D+03           0.304148D+00
                  0.672393D+02           0.500000D+00
                  0.265780D+02           0.360252D+00
            S   3   1.00
                  0.131826D+03          -0.531330D-01
                  0.400703D+02          -0.233346D+00
                  0.789448D+01           0.500000D+00
            S   2   1.00
                  0.427711D+01           0.500000D+00
                  0.196233D+01           0.370517D+00
            S   1   1.00
                  0.520793D+00           1.0000000
            S   1   1.00
                  0.181633D+00           1.0000000
            P   7   1.00
                  0.124440D+04           0.988206D-03
                  0.295109D+03           0.829674D-02
                  0.947224D+02           0.430906D-01
                  0.352588D+02           0.148443D+00
                  0.144211D+02           0.344744D+00
                  0.610371D+01           0.500000D+00
                  0.258886D+01           0.348278D+00
            P   2   1.00
                  0.109447D+02          -0.196768D-01
                  0.104413D+01           0.500000D+00
            P   1   1.00
                  0.376184D+00           1.0000000
            P   1   1.00
                  0.120613D+00           1.0000000
            D   1   1.00
                  0.231000D+01           1.0000000
            D   1   1.00
                  0.520000D+00           1.0000000
            F   1   1.00
                  0.720000D+00           1.0000000
            ****
            -S     0
            S   8   1.00
                  0.134700D+06           0.226231D-03
                  0.201904D+05           0.175488D-02
                  0.459528D+04           0.914190D-02
                  0.130109D+04           0.373551D-01
                  0.423902D+03           0.123121D+00
                  0.152485D+03           0.306801D+00
                  0.586925D+02           0.500000D+00
                  0.231461D+02           0.354358D+00
            S   3   1.00
                  0.116327D+03          -0.491772D-01
                  0.352841D+02          -0.215962D+00
                  0.677831D+01           0.500000D+00
            S   2   1.00
                  0.360404D+01           0.500000D+00
                  0.164871D+01           0.366278D+00
            S   1   1.00
                  0.421821D+00           1.0000000
            S   1   1.00
                  0.147554D+00           1.0000000
            P   7   1.00
                  0.104863D+04           0.105273D-02
                  0.248717D+03           0.879338D-02
                  0.797887D+02           0.453358D-01
                  0.296023D+02           0.154476D+00
                  0.120627D+02           0.352366D+00
                  0.507628D+01           0.500000D+00
                  0.213375D+01           0.346429D+00
            P   2   1.00
                  0.928958D+01          -0.185932D-01
                  0.837819D+00           0.500000D+00
            P   1   1.00
                  0.301495D+00           1.0000000
            P   1   1.00
                  0.974740D-01           1.0000000
            D   1   1.00
                  0.210000D+01           1.0000000
            D   1   1.00
                  0.480000D+00           1.0000000
            F   1   1.00
                  0.660000D+00           1.0000000
            ****
            -Br     0
            S    10   1.00
                  0.233625D+07           0.532336D-04
                  0.349961D+06           0.413715D-03
                  0.796444D+05           0.217123D-02
                  0.225555D+05           0.910109D-02
                  0.735546D+04           0.323789D-01
                  0.265352D+04           0.988755D-01
                  0.103517D+04           0.248138D+00
                  0.422205D+03           0.474328D+00
                  0.180035D+03           0.500000D+00
                  0.793308D+02           0.187769D+00
            S    4   1.00
                  0.620834D+03          -0.226511D-01
                  0.190829D+03          -0.109497D+00
                  0.312505D+02           0.500000D+00
                  0.135270D+02           0.492812D+00
            S    2   1.00
                  0.216097D+02          -0.165418D+00
                  0.372566D+01           0.500000D+00
            S    1   1.00
                  0.169770D+01           1.0000000
            S    1   1.00
                  0.489332D+00           1.0000000
            S    1   1.00
                  0.175712D+00           1.0000000
            P    8   1.00
                  0.960829D+04           0.478974D-03
                  0.227618D+04           0.417853D-02
                  0.736723D+03           0.229315D-01
                  0.281579D+03           0.892653D-01
                  0.118395D+03           0.255288D+00
                  0.527481D+02           0.479074D+00
                  0.245098D+02           0.500000D+00
                  0.112009D+02           0.200944D+00
            P    4   1.00
                  0.587849D+02          -0.189674D-01
                  0.918962D+01           0.264104D+00
                  0.413895D+01           0.500000D+00
                  0.184225D+01           0.319316D+00
            P    1   1.00
                  0.713862D+00           1.0000000
            P    1   1.00
                  0.274232D+00           1.0000000
            P    1   1.00
                  0.944411D-01           1.0000000
            D    7   1.00
                  0.398470D+03           0.204066D-02
                  0.118967D+03           0.175171D-01
                  0.450197D+02           0.829708D-01
                  0.190320D+02           0.236284D+00
                  0.855686D+01           0.428468D+00
                  0.382950D+01           0.500000D+00
                  0.166291D+01           0.349360D+00
            D    1   1.00
                  0.672953D+00           1.0000000
            D    1   1.00
                  0.252000D+00           1.0000000
            F    1   1.00
                  0.530000D+00           1.0000000
            ****
            -Si     0
            S    8   1.00
                  0.996133D+05           0.235546D-03
                  0.149311D+05           0.182707D-02
                  0.339820D+04           0.951425D-02
                  0.962140D+03           0.388172D-01
                  0.313430D+03           0.127328D+00
                  0.112683D+03           0.313522D+00
                  0.433372D+02           0.500000D+00
                  0.170029D+02           0.340347D+00
            S    3   1.00
                  0.884208D+02          -0.404451D-01
                  0.266756D+02          -0.178059D+00
                  0.479640D+01           0.500000D+00
            S    2   1.00
                  0.239385D+01           0.500000D+00
                  0.108333D+01           0.338016D+00
            S    1   1.00
                  0.252420D+00           1.0000000
            S    1   1.00
                  0.891210D-01           1.0000000
            P    7   1.00
                  0.709901D+03           0.123028D-02
                  0.168426D+03           0.101366D-01
                  0.539946D+02           0.511840D-01
                  0.198646D+02           0.169967D+00
                  0.801369D+01           0.370717D+00
                  0.331870D+01           0.500000D+00
                  0.136112D+01           0.344128D+00
            P    2   1.00
                  0.622158D+01          -0.166609D-01
                  0.503049D+00           0.500000D+00
            P    1   1.00
                  0.179848D+00           1.0000000
            P    1   1.00
                  0.591912D-01           1.0000000
            D    1   1.00
                  0.168000D+01           1.0000000
            D    1   1.00
                  0.380000D+00           1.0000000
            F    1   1.00
                  0.540000D+00           1.0000000
            ****
            -P     0
            S    8   1.00
                  0.116416D+06           0.230715D-03
                  0.174500D+05           0.178960D-02
                  0.397149D+04           0.932116D-02
                  0.112447D+04           0.380591D-01
                  0.366347D+03           0.125148D+00
                  0.131757D+03           0.310022D+00
                  0.506988D+02           0.500000D+00
                  0.199436D+02           0.347528D+00
            S    3   1.00
                  0.101878D+03          -0.446755D-01
                  0.308249D+02          -0.196376D+00
                  0.573688D+01           0.500000D+00
            S    2   1.00
                  0.296868D+01           0.500000D+00
                  0.135315D+01           0.355098D+00
            S    1   1.00
                  0.332196D+00           1.0000000
            S    1   1.00
                  0.116229D+00           1.0000000
            P    7   1.00
                  0.873928D+03           0.112375D-02
                  0.207298D+03           0.933330D-02
                  0.664628D+02           0.477213D-01
                  0.245665D+02           0.160733D+00
                  0.996820D+01           0.359760D+00
                  0.416536D+01           0.500000D+00
                  0.173022D+01           0.346593D+00
            P    2   1.00
                  0.772530D+01          -0.175718D-01
                  0.657252D+00           0.500000D+00
            P    1   1.00
                  0.239903D+00           1.0000000
            P    1   1.00
                  0.800988D-01           1.0000000
            D    1   1.00
                  0.189000D+01           1.0000000
            D    1   1.00
                  0.430000D+00           1.0000000
            F    1   1.00
                  0.600000D+00           1.0000000
            ****
            
 Initial command:
 /usr/local/apps/g16_b01_avx/g16/l1.exe "/wrk/irikura/Gau-1840298.inp" -scrdir="/wrk/irikura/"
 Entering Link 1 = /usr/local/apps/g16_b01_avx/g16/l1.exe PID=   1840300.
  
 Copyright (c) 1988-2017, Gaussian, Inc.  All Rights Reserved.
  
 This is part of the Gaussian(R) 16 program.  It is based on
 the Gaussian(R) 09 system (copyright 2009, Gaussian, Inc.),
 the Gaussian(R) 03 system (copyright 2003, Gaussian, Inc.),
 the Gaussian(R) 98 system (copyright 1998, Gaussian, Inc.),
 the Gaussian(R) 94 system (copyright 1995, Gaussian, Inc.),
 the Gaussian 92(TM) system (copyright 1992, Gaussian, Inc.),
 the Gaussian 90(TM) system (copyright 1990, Gaussian, Inc.),
 the Gaussian 88(TM) system (copyright 1988, Gaussian, Inc.),
 the Gaussian 86(TM) system (copyright 1986, Carnegie Mellon
 University), and the Gaussian 82(TM) system (copyright 1983,
 Carnegie Mellon University). Gaussian is a federally registered
 trademark of Gaussian, Inc.
  
 This software contains proprietary and confidential information,
 including trade secrets, belonging to Gaussian, Inc.
  
 This software is provided under written license and may be
 used, copied, transmitted, or stored only in accord with that
 written license.
  
 The following legend is applicable only to US Government
 contracts under FAR:
  
                    RESTRICTED RIGHTS LEGEND
  
 Use, reproduction and disclosure by the US Government is
 subject to restrictions as set forth in subparagraphs (a)
 and (c) of the Commercial Computer Software - Restricted
 Rights clause in FAR 52.227-19.
  
 Gaussian, Inc.
 340 Quinnipiac St., Bldg. 40, Wallingford CT 06492
  
  
 ---------------------------------------------------------------
 Warning -- This program may not be used in any manner that
 competes with the business of Gaussian, Inc. or will provide
 assistance to any competitor of Gaussian, Inc.  The licensee
 of this program is prohibited from giving any competitor of
 Gaussian, Inc. access to this program.  By using this program,
 the user acknowledges that Gaussian, Inc. is engaged in the
 business of creating and licensing software in the field of
 computational chemistry and represents and warrants to the
 licensee that it is not a competitor of Gaussian, Inc. and that
 it will not use this program in any manner prohibited above.
 ---------------------------------------------------------------
  

 Cite this work as:
 Gaussian 16, Revision B.01,
 M. J. Frisch, G. W. Trucks, H. B. Schlegel, G. E. Scuseria, 
 M. A. Robb, J. R. Cheeseman, G. Scalmani, V. Barone, 
 G. A. Petersson, H. Nakatsuji, X. Li, M. Caricato, A. V. Marenich, 
 J. Bloino, B. G. Janesko, R. Gomperts, B. Mennucci, H. P. Hratchian, 
 J. V. Ortiz, A. F. Izmaylov, J. L. Sonnenberg, D. Williams-Young, 
 F. Ding, F. Lipparini, F. Egidi, J. Goings, B. Peng, A. Petrone, 
 T. Henderson, D. Ranasinghe, V. G. Zakrzewski, J. Gao, N. Rega, 
 G. Zheng, W. Liang, M. Hada, M. Ehara, K. Toyota, R. Fukuda, 
 J. Hasegawa, M. Ishida, T. Nakajima, Y. Honda, O. Kitao, H. Nakai, 
 T. Vreven, K. Throssell, J. A. Montgomery, Jr., J. E. Peralta, 
 F. Ogliaro, M. J. Bearpark, J. J. Heyd, E. N. Brothers, K. N. Kudin, 
 V. N. Staroverov, T. A. Keith, R. Kobayashi, J. Normand, 
 K. Raghavachari, A. P. Rendell, J. C. Burant, S. S. Iyengar, 
 J. Tomasi, M. Cossi, J. M. Millam, M. Klene, C. Adamo, R. Cammi, 
 J. W. Ochterski, R. L. Martin, K. Morokuma, O. Farkas, 
 J. B. Foresman, and D. J. Fox, Gaussian, Inc., Wallingford CT, 2016.
 
 ******************************************
 Gaussian 16:  ES64L-G16RevB.01 20-Dec-2017
                27-Sep-2023 
 ******************************************
 %chk=phf.chk
 %mem=500mw
 %nprocs=4
 Will use up to    4 processors via shared memory.
 ---------------------------------------
 # b3lyp/gen opt freq CPHF(Grid=OneStep)
 ---------------------------------------
 1/18=20,19=15,26=3,38=1/1,3;
 2/9=110,12=2,17=6,18=5,40=1/2;
 3/5=7,11=2,25=1,30=1,71=1,74=-5/1,2,3;
 4//1;
 5/5=2,38=5/2;
 6/7=2,8=2,9=2,10=2,28=1/1;
 7//1,2,3,16;
 1/18=20,19=15,26=3/3(2);
 2/9=110/2;
 99//99;
 2/9=110/2;
 3/5=7,6=1,11=2,25=1,30=1,71=1,74=-5,82=7/1,2,3;
 4/5=5,16=3,69=1/1;
 5/5=2,38=5/2;
 7//1,2,3,16;
 1/18=20,19=15,26=3/3(-5);
 2/9=110/2;
 6/7=2,8=2,9=2,10=2,19=2,28=1/1;
 99/9=1/99;
 ----------------------------
 fluorobenzene, B3LYP/pcseg-2
 ----------------------------
 Symbolic Z-matrix:
 Charge =  0 Multiplicity = 1
 F                     0.        0.        2.27744 
 C                     0.        0.        0.92518 
 C                     0.        1.21266   0.25902 
 C                     0.       -1.21266   0.25902 
 C                     0.        1.2036   -1.13171 
 C                     0.       -1.2036   -1.13171 
 C                     0.        0.       -1.8289 
 H                     0.        2.13437   0.82297 
 H                     0.       -2.13437   0.82297 
 H                     0.        2.14201  -1.66917 
 H                     0.       -2.14201  -1.66917 
 H                     0.        0.       -2.90989 
 

 GradGradGradGradGradGradGradGradGradGradGradGradGradGradGradGradGradGrad
 Berny optimization.
 Initialization pass.
                           ----------------------------
                           !    Initial Parameters    !
                           ! (Angstroms and Degrees)  !
 --------------------------                            --------------------------
 ! Name  Definition              Value          Derivative Info.                !
 --------------------------------------------------------------------------------
 ! R1    R(1,2)                  1.3523         estimate D2E/DX2                !
 ! R2    R(2,3)                  1.3836         estimate D2E/DX2                !
 ! R3    R(2,4)                  1.3836         estimate D2E/DX2                !
 ! R4    R(3,5)                  1.3908         estimate D2E/DX2                !
 ! R5    R(3,8)                  1.0806         estimate D2E/DX2                !
 ! R6    R(4,6)                  1.3908         estimate D2E/DX2                !
 ! R7    R(4,9)                  1.0806         estimate D2E/DX2                !
 ! R8    R(5,7)                  1.3909         estimate D2E/DX2                !
 ! R9    R(5,10)                 1.0814         estimate D2E/DX2                !
 ! R10   R(6,7)                  1.3909         estimate D2E/DX2                !
 ! R11   R(6,11)                 1.0814         estimate D2E/DX2                !
 ! R12   R(7,12)                 1.081          estimate D2E/DX2                !
 ! A1    A(1,2,3)              118.7818         estimate D2E/DX2                !
 ! A2    A(1,2,4)              118.7818         estimate D2E/DX2                !
 ! A3    A(3,2,4)              122.4364         estimate D2E/DX2                !
 ! A4    A(2,3,5)              118.4087         estimate D2E/DX2                !
 ! A5    A(2,3,8)              119.7576         estimate D2E/DX2                !
 ! A6    A(5,3,8)              121.8337         estimate D2E/DX2                !
 ! A7    A(2,4,6)              118.4087         estimate D2E/DX2                !
 ! A8    A(2,4,9)              119.7576         estimate D2E/DX2                !
 ! A9    A(6,4,9)              121.8337         estimate D2E/DX2                !
 ! A10   A(3,5,7)              120.4545         estimate D2E/DX2                !
 ! A11   A(3,5,10)             119.4281         estimate D2E/DX2                !
 ! A12   A(7,5,10)             120.1174         estimate D2E/DX2                !
 ! A13   A(4,6,7)              120.4545         estimate D2E/DX2                !
 ! A14   A(4,6,11)             119.4281         estimate D2E/DX2                !
 ! A15   A(7,6,11)             120.1174         estimate D2E/DX2                !
 ! A16   A(5,7,6)              119.8372         estimate D2E/DX2                !
 ! A17   A(5,7,12)             120.0814         estimate D2E/DX2                !
 ! A18   A(6,7,12)             120.0814         estimate D2E/DX2                !
 ! D1    D(1,2,3,5)            180.0            estimate D2E/DX2                !
 ! D2    D(1,2,3,8)              0.0            estimate D2E/DX2                !
 ! D3    D(4,2,3,5)              0.0            estimate D2E/DX2                !
 ! D4    D(4,2,3,8)            180.0            estimate D2E/DX2                !
 ! D5    D(1,2,4,6)            180.0            estimate D2E/DX2                !
 ! D6    D(1,2,4,9)              0.0            estimate D2E/DX2                !
 ! D7    D(3,2,4,6)              0.0            estimate D2E/DX2                !
 ! D8    D(3,2,4,9)            180.0            estimate D2E/DX2                !
 ! D9    D(2,3,5,7)              0.0            estimate D2E/DX2                !
 ! D10   D(2,3,5,10)           180.0            estimate D2E/DX2                !
 ! D11   D(8,3,5,7)            180.0            estimate D2E/DX2                !
 ! D12   D(8,3,5,10)             0.0            estimate D2E/DX2                !
 ! D13   D(2,4,6,7)              0.0            estimate D2E/DX2                !
 ! D14   D(2,4,6,11)           180.0            estimate D2E/DX2                !
 ! D15   D(9,4,6,7)            180.0            estimate D2E/DX2                !
 ! D16   D(9,4,6,11)             0.0            estimate D2E/DX2                !
 ! D17   D(3,5,7,6)              0.0            estimate D2E/DX2                !
 ! D18   D(3,5,7,12)           180.0            estimate D2E/DX2                !
 ! D19   D(10,5,7,6)           180.0            estimate D2E/DX2                !
 ! D20   D(10,5,7,12)            0.0            estimate D2E/DX2                !
 ! D21   D(4,6,7,5)              0.0            estimate D2E/DX2                !
 ! D22   D(4,6,7,12)           180.0            estimate D2E/DX2                !
 ! D23   D(11,6,7,5)           180.0            estimate D2E/DX2                !
 ! D24   D(11,6,7,12)            0.0            estimate D2E/DX2                !
 --------------------------------------------------------------------------------
 Trust Radius=3.00D-01 FncErr=1.00D-07 GrdErr=1.00D-06 EigMax=2.50D+02 EigMin=1.00D-04
 Number of steps in this run=     64 maximum allowed number of steps=    100.
 GradGradGradGradGradGradGradGradGradGradGradGradGradGradGradGradGradGrad

                          Input orientation:                          
 ---------------------------------------------------------------------
 Center     Atomic      Atomic             Coordinates (Angstroms)
 Number     Number       Type             X           Y           Z
 ---------------------------------------------------------------------
      1          9           0        0.000000    0.000000    2.277442
      2          6           0        0.000000    0.000000    0.925178
      3          6           0        0.000000    1.212656    0.259016
      4          6           0        0.000000   -1.212656    0.259016
      5          6           0        0.000000    1.203600   -1.131714
      6          6           0        0.000000   -1.203600   -1.131714
      7          6           0        0.000000    0.000000   -1.828895
      8          1           0        0.000000    2.134369    0.822971
      9          1           0        0.000000   -2.134369    0.822971
     10          1           0        0.000000    2.142011   -1.669173
     11          1           0        0.000000   -2.142011   -1.669173
     12          1           0        0.000000    0.000000   -2.909892
 ---------------------------------------------------------------------
                    Distance matrix (angstroms):
                    1          2          3          4          5
     1  F    0.000000
     2  C    1.352264   0.000000
     3  C    2.354693   1.383585   0.000000
     4  C    2.354693   1.383585   2.425312   0.000000
     5  C    3.615383   2.383161   1.390759   2.787907   0.000000
     6  C    3.615383   2.383161   2.787907   1.390759   2.407200
     7  C    4.106337   2.754073   2.414520   2.414520   1.390940
     8  H    2.582831   2.136815   1.080555   3.394204   2.164977
     9  H    2.582831   2.136815   3.394204   1.080555   3.868182
    10  H    4.490432   3.364353   2.140470   3.869329   1.081424
    11  H    4.490432   3.364353   3.869329   2.140470   3.388506
    12  H    5.187334   3.835070   3.393009   3.393009   2.147224
                    6          7          8          9         10
     6  C    0.000000
     7  C    1.390940   0.000000
     8  H    3.868182   3.404104   0.000000
     9  H    2.164977   3.404104   4.268738   0.000000
    10  H    3.388506   2.147958   2.492156   4.949566   0.000000
    11  H    1.081424   2.147958   4.949566   2.492156   4.284022
    12  H    2.147224   1.080997   4.299976   4.299976   2.475398
                   11         12
    11  H    0.000000
    12  H    2.475398   0.000000
 Stoichiometry    C6H5F
 Framework group  C2V[C2(HCCF),SGV(C4H4)]
 Deg. of freedom    11
 Full point group                 C2V     NOp   4
 Largest Abelian subgroup         C2V     NOp   4
 Largest concise Abelian subgroup C2      NOp   2
                         Standard orientation:                         
 ---------------------------------------------------------------------
 Center     Atomic      Atomic             Coordinates (Angstroms)
 Number     Number       Type             X           Y           Z
 ---------------------------------------------------------------------
      1          9           0        0.000000   -0.000000    2.277442
      2          6           0        0.000000   -0.000000    0.925178
      3          6           0        0.000000    1.212656    0.259016
      4          6           0       -0.000000   -1.212656    0.259016
      5          6           0        0.000000    1.203600   -1.131714
      6          6           0       -0.000000   -1.203600   -1.131714
      7          6           0        0.000000    0.000000   -1.828895
      8          1           0        0.000000    2.134369    0.822971
      9          1           0       -0.000000   -2.134369    0.822971
     10          1           0        0.000000    2.142011   -1.669173
     11          1           0       -0.000000   -2.142011   -1.669173
     12          1           0        0.000000    0.000000   -2.909892
 ---------------------------------------------------------------------
 Rotational constants (GHZ):           5.7110726           2.5741837           1.7743989
 General basis read from cards:  (5D, 7F)
 There are   126 symmetry adapted cartesian basis functions of A1  symmetry.
 There are    40 symmetry adapted cartesian basis functions of A2  symmetry.
 There are    57 symmetry adapted cartesian basis functions of B1  symmetry.
 There are    97 symmetry adapted cartesian basis functions of B2  symmetry.
 There are   106 symmetry adapted basis functions of A1  symmetry.
 There are    38 symmetry adapted basis functions of A2  symmetry.
 There are    52 symmetry adapted basis functions of B1  symmetry.
 There are    84 symmetry adapted basis functions of B2  symmetry.
   280 basis functions,   447 primitive gaussians,   320 cartesian basis functions
    25 alpha electrons       25 beta electrons
       nuclear repulsion energy       269.8527114215 Hartrees.
 NAtoms=   12 NActive=   12 NUniq=    8 SFac= 2.25D+00 NAtFMM=   60 NAOKFM=F Big=F
 Integral buffers will be    131072 words long.
 Raffenetti 2 integral format.
 Two-electron integral symmetry is turned on.
 One-electron integrals computed using PRISM.
 NBasis=   280 RedAO= T EigKep=  2.58D-05  NBF=   106    38    52    84
 NBsUse=   280 1.00D-06 EigRej= -1.00D+00 NBFU=   106    38    52    84
 ExpMin= 7.42D-02 ExpMax= 1.75D+04 ExpMxC= 5.96D+02 IAcc=3 IRadAn=         5 AccDes= 0.00D+00
 Harris functional with IExCor=  402 and IRadAn=       5 diagonalized for initial guess.
 HarFok:  IExCor=  402 AccDes= 0.00D+00 IRadAn=         5 IDoV= 1 UseB2=F ITyADJ=14
 ICtDFT=  3500011 ScaDFX=  1.000000  1.000000  1.000000  1.000000
 FoFCou: FMM=F IPFlag=           0 FMFlag=      100000 FMFlg1=           0
         NFxFlg=           0 DoJE=T BraDBF=F KetDBF=T FulRan=T
         wScrn=  0.000000 ICntrl=       500 IOpCl=  0 I1Cent=   200000004 NGrid=           0
         NMat0=    1 NMatS0=      1 NMatT0=    0 NMatD0=    1 NMtDS0=    0 NMtDT0=    0
 Petite list used in FoFCou.
 Initial guess orbital symmetries:
       Occupied  (A1) (A1) (B2) (A1) (B2) (A1) (A1) (A1) (A1) (B2)
                 (A1) (B2) (A1) (A1) (B2) (A1) (A1) (B2) (B1) (A1)
                 (B2) (B1) (B2) (A2) (B1)
       Virtual   (A2) (B1) (A1) (B2) (B1) (A1) (A1) (B2) (A1) (A1)
                 (A1) (B1) (B2) (B2) (A2) (A1) (B1) (A1) (B2) (A1)
                 (A1) (B2) (A2) (B1) (B2) (A1) (A1) (B2) (B2) (A1)
                 (B1) (A1) (A1) (B2) (B2) (A1) (B2) (A1) (B1) (B2)
                 (A1) (B2) (A1) (B1) (B2) (A1) (A1) (A2) (A2) (B2)
                 (B1) (A1) (B2) (A2) (B1) (A1) (B2) (A1) (A1) (A1)
                 (B1) (B2) (A1) (A2) (B1) (B2) (A1) (B2) (B1) (A1)
                 (B1) (B2) (A2) (B1) (A2) (A1) (B2) (B1) (A1) (B2)
                 (B2) (A2) (A1) (B1) (A2) (B2) (B1) (A1) (A1) (B1)
                 (A2) (B2) (A1) (A1) (B2) (A1) (A1) (A2) (B2) (A1)
                 (A1) (B2) (B2) (A1) (B2) (B1) (A1) (A2) (B2) (A1)
                 (A1) (B2) (B2) (A1) (B1) (B2) (A1) (A1) (B2) (A1)
                 (B2) (B2) (A1) (A2) (B1) (B1) (B2) (A2) (B1) (A1)
                 (A2) (B1) (B2) (B1) (A1) (A1) (A2) (B2) (B1) (B2)
                 (A1) (B2) (A1) (A1) (A2) (B2) (A1) (B1) (A1) (A1)
                 (B2) (B2) (A1) (B1) (A2) (B1) (B2) (A2) (A1) (B1)
                 (A1) (A2) (A1) (B2) (B1) (B2) (A2) (A1) (B1) (B2)
                 (A1) (B2) (A2) (A1) (A2) (B1) (A1) (B2) (A2) (A1)
                 (B1) (B1) (A2) (B2) (B1) (A1) (B2) (B1) (A2) (A1)
                 (B1) (A2) (B1) (B2) (A2) (B2) (A1) (A2) (B1) (B2)
                 (A2) (A1) (B1) (B1) (A1) (A1) (B2) (B2) (A2) (A1)
                 (B2) (B1) (B2) (A1) (B2) (B2) (A1) (B1) (A1) (B1)
                 (A2) (B2) (A1) (A2) (A1) (A1) (B2) (B2) (B1) (A1)
                 (A2) (B2) (A1) (A1) (B2) (B2) (B1) (A1) (B2) (A1)
                 (B2) (A1) (A1) (A1) (B2) (A1) (B2) (A1) (B2) (A2)
                 (A1) (B1) (A1) (B2) (A1)
 The electronic state of the initial guess is 1-A1.
 Requested convergence on RMS density matrix=1.00D-08 within 128 cycles.
 Requested convergence on MAX density matrix=1.00D-06.
 Requested convergence on             energy=1.00D-06.
 No special actions if energy rises.
 Integral accuracy reduced to 1.0D-05 until final iterations.
 Initial convergence to 1.0D-05 achieved.  Increase integral accuracy.
 SCF Done:  E(RB3LYP) =  -331.620001188     A.U. after   13 cycles
            NFock= 13  Conv=0.53D-08     -V/T= 2.0034

 **********************************************************************

            Population analysis using the SCF Density.

 **********************************************************************

 Orbital symmetries:
       Occupied  (A1) (A1) (A1) (B2) (B2) (A1) (A1) (A1) (A1) (B2)
                 (A1) (B2) (A1) (A1) (A1) (B2) (B1) (A1) (B2) (B2)
                 (A1) (B1) (B2) (A2) (B1)
       Virtual   (A2) (B1) (A1) (B2) (A1) (A1) (B2) (A1) (B1) (A1)
                 (B1) (A1) (B2) (A2) (B2) (B1) (A1) (B2) (A1) (A2)
                 (B1) (A1) (A1) (A1) (B2) (B2) (A1) (B2) (B1) (B2)
                 (A1) (A1) (B2) (A1) (B2) (B2) (A1) (A1) (B1) (A1)
                 (B2) (B2) (B2) (A1) (B1) (A1) (A1) (B2) (A2) (A2)
                 (B1) (A2) (B2) (A1) (A1) (B1) (A1) (B2) (A1) (A1)
                 (B1) (A1) (B2) (A1) (B2) (B1) (A2) (B2) (B1) (A1)
                 (B2) (A2) (B1) (B1) (A1) (A2) (B2) (A1) (B2) (B1)
                 (B2) (A2) (A1) (B1) (A2) (B2) (A1) (B1) (A1) (B1)
                 (B2) (A2) (A1) (A1) (B2) (A1) (A1) (A2) (B2) (A1)
                 (A1) (B2) (B2) (B2) (A1) (B1) (A1) (A2) (B2) (A1)
                 (A1) (B2) (B2) (A1) (B1) (B2) (A1) (A1) (B2) (A1)
                 (B2) (A1) (B2) (B1) (A2) (B1) (B2) (A2) (B1) (A1)
                 (A2) (B1) (B2) (B1) (A1) (A1) (A2) (B2) (B1) (B2)
                 (A1) (B2) (A1) (A2) (A1) (B2) (A1) (B1) (A1) (A1)
                 (B2) (B2) (A1) (A2) (B1) (A2) (B1) (B2) (A1) (B1)
                 (A1) (A2) (A1) (B1) (B2) (B2) (A2) (A1) (A1) (B2)
                 (B1) (B2) (A1) (A2) (A2) (B2) (A1) (B1) (A2) (B1)
                 (A1) (B1) (A2) (B2) (B1) (A1) (B2) (A2) (A1) (B1)
                 (B1) (A2) (B1) (B2) (A2) (B2) (A1) (A2) (B1) (B2)
                 (A2) (A1) (B1) (B1) (A1) (A2) (B2) (A1) (A1) (B2)
                 (B2) (B1) (B2) (A1) (B2) (B2) (A1) (B1) (A1) (B1)
                 (A2) (A1) (B2) (A2) (A1) (B2) (A1) (B2) (B1) (A1)
                 (A2) (B2) (A1) (B2) (A1) (B2) (B1) (A1) (B2) (A1)
                 (B2) (A1) (A1) (A1) (B2) (A1) (B2) (A1) (B2) (A2)
                 (A1) (B1) (A1) (B2) (A1)
 The electronic state is 1-A1.
 Alpha  occ. eigenvalues --  -24.68966 -10.26449 -10.19017 -10.19015 -10.18702
 Alpha  occ. eigenvalues --  -10.18702 -10.18317  -1.22805  -0.87298  -0.76703
 Alpha  occ. eigenvalues --   -0.75772  -0.63319  -0.62146  -0.55561  -0.50583
 Alpha  occ. eigenvalues --   -0.49774  -0.47457  -0.45632  -0.44249  -0.40928
 Alpha  occ. eigenvalues --   -0.38223  -0.37477  -0.35760  -0.27361  -0.25929
 Alpha virt. eigenvalues --   -0.02898  -0.01635   0.01442   0.03632   0.04648
 Alpha virt. eigenvalues --    0.06669   0.07001   0.09856   0.12858   0.15300
 Alpha virt. eigenvalues --    0.16026   0.16825   0.17215   0.19285   0.19718
 Alpha virt. eigenvalues --    0.20338   0.22512   0.22966   0.24830   0.26901
 Alpha virt. eigenvalues --    0.27109   0.28546   0.29289   0.29577   0.29941
 Alpha virt. eigenvalues --    0.31827   0.32105   0.32547   0.34019   0.35857
 Alpha virt. eigenvalues --    0.37103   0.38410   0.43470   0.43623   0.44261
 Alpha virt. eigenvalues --    0.44801   0.44862   0.47722   0.51686   0.58344
 Alpha virt. eigenvalues --    0.59117   0.62227   0.64334   0.66316   0.66468
 Alpha virt. eigenvalues --    0.68243   0.70696   0.73485   0.75297   0.78307
 Alpha virt. eigenvalues --    0.79622   0.83376   0.84023   0.84694   0.93152
 Alpha virt. eigenvalues --    0.93524   0.97105   0.97371   0.98587   1.01620
 Alpha virt. eigenvalues --    1.04661   1.07239   1.07927   1.10291   1.10645
 Alpha virt. eigenvalues --    1.12385   1.12593   1.14379   1.17047   1.18663
 Alpha virt. eigenvalues --    1.21491   1.23032   1.23925   1.27799   1.27920
 Alpha virt. eigenvalues --    1.28547   1.30917   1.37659   1.37892   1.38611
 Alpha virt. eigenvalues --    1.42866   1.43873   1.45167   1.52048   1.53014
 Alpha virt. eigenvalues --    1.54906   1.56827   1.56859   1.58704   1.60308
 Alpha virt. eigenvalues --    1.62192   1.62734   1.67958   1.70521   1.74991
 Alpha virt. eigenvalues --    1.78103   1.80474   1.82215   1.84004   1.85458
 Alpha virt. eigenvalues --    1.86500   1.92396   1.93128   1.95805   1.98033
 Alpha virt. eigenvalues --    1.98308   2.03825   2.05867   2.10970   2.16527
 Alpha virt. eigenvalues --    2.18079   2.19610   2.22728   2.27301   2.28320
 Alpha virt. eigenvalues --    2.35606   2.36824   2.46551   2.51216   2.64235
 Alpha virt. eigenvalues --    2.68691   2.71912   2.73741   2.82401   2.83338
 Alpha virt. eigenvalues --    2.98625   3.11289   3.14369   3.14861   3.18537
 Alpha virt. eigenvalues --    3.21755   3.23760   3.26823   3.29668   3.31537
 Alpha virt. eigenvalues --    3.33548   3.35332   3.39155   3.43485   3.44784
 Alpha virt. eigenvalues --    3.49051   3.54838   3.57319   3.62873   3.63212
 Alpha virt. eigenvalues --    3.63623   3.68906   3.70244   3.77745   3.81766
 Alpha virt. eigenvalues --    3.83036   3.86705   3.91610   3.93865   3.94345
 Alpha virt. eigenvalues --    3.98228   3.98299   3.98651   4.00052   4.01112
 Alpha virt. eigenvalues --    4.03636   4.04481   4.06634   4.11269   4.13209
 Alpha virt. eigenvalues --    4.14900   4.17364   4.18036   4.20335   4.20805
 Alpha virt. eigenvalues --    4.21931   4.23604   4.24029   4.26811   4.29007
 Alpha virt. eigenvalues --    4.29391   4.29799   4.30129   4.33909   4.34194
 Alpha virt. eigenvalues --    4.35119   4.36179   4.37992   4.38015   4.42473
 Alpha virt. eigenvalues --    4.42959   4.44535   4.45397   4.46425   4.46906
 Alpha virt. eigenvalues --    4.50184   4.50477   4.51623   4.56202   4.59231
 Alpha virt. eigenvalues --    4.62402   4.66426   4.69002   4.69603   4.70908
 Alpha virt. eigenvalues --    4.74574   4.75147   4.77274   4.86216   4.90012
 Alpha virt. eigenvalues --    4.92390   4.93034   4.93469   4.96316   4.96741
 Alpha virt. eigenvalues --    5.02012   5.03155   5.07867   5.11817   5.15306
 Alpha virt. eigenvalues --    5.18225   5.20009   5.20794   5.24744   5.29827
 Alpha virt. eigenvalues --    5.31629   5.34132   5.35031   5.40183   5.40235
 Alpha virt. eigenvalues --    5.47172   5.48606   5.50459   5.52217   5.54285
 Alpha virt. eigenvalues --    5.55890   5.62052   5.66186   5.69657   5.70838
 Alpha virt. eigenvalues --    5.72847   5.86435   5.91734   5.99386   6.01018
 Alpha virt. eigenvalues --    6.03285   6.06493   6.29389   6.41788   6.44549
 Alpha virt. eigenvalues --    6.48118   6.60401   6.87703   7.16452   7.56335
 Alpha virt. eigenvalues --    7.61280   7.98770   8.18874   8.22102  11.12553
          Condensed to atoms (all electrons):
               1          2          3          4          5          6
     1  F    9.180648   0.161782  -0.038154  -0.038154   0.014505   0.014505
     2  C    0.161782   4.538773   0.543679   0.543679  -0.033427  -0.033427
     3  C   -0.038154   0.543679   4.939994  -0.020629   0.390262  -0.080626
     4  C   -0.038154   0.543679  -0.020629   4.939994  -0.080626   0.390262
     5  C    0.014505  -0.033427   0.390262  -0.080626   4.908185  -0.022473
     6  C    0.014505  -0.033427  -0.080626   0.390262  -0.022473   4.908185
     7  C   -0.000178  -0.047812  -0.049827  -0.049827   0.467860   0.467860
     8  H    0.000459  -0.046303   0.453054   0.012174  -0.049290  -0.005356
     9  H    0.000459  -0.046303   0.012174   0.453054  -0.005356  -0.049290
    10  H   -0.000111   0.008223  -0.047279  -0.004991   0.453896   0.014668
    11  H   -0.000111   0.008223  -0.004991  -0.047279   0.014668   0.453896
    12  H    0.000019  -0.003011   0.013178   0.013178  -0.052585  -0.052585
               7          8          9         10         11         12
     1  F   -0.000178   0.000459   0.000459  -0.000111  -0.000111   0.000019
     2  C   -0.047812  -0.046303  -0.046303   0.008223   0.008223  -0.003011
     3  C   -0.049827   0.453054   0.012174  -0.047279  -0.004991   0.013178
     4  C   -0.049827   0.012174   0.453054  -0.004991  -0.047279   0.013178
     5  C    0.467860  -0.049290  -0.005356   0.453896   0.014668  -0.052585
     6  C    0.467860  -0.005356  -0.049290   0.014668   0.453896  -0.052585
     7  C    4.863753   0.012868   0.012868  -0.050605  -0.050605   0.455798
     8  H    0.012868   0.596380  -0.000212  -0.010089   0.000094  -0.000064
     9  H    0.012868  -0.000212   0.596380   0.000094  -0.010089  -0.000064
    10  H   -0.050605  -0.010089   0.000094   0.617318  -0.000179  -0.009815
    11  H   -0.050605   0.000094  -0.010089  -0.000179   0.617318  -0.009815
    12  H    0.455798  -0.000064  -0.000064  -0.009815  -0.009815   0.621256
 Mulliken charges:
               1
     1  F   -0.295670
     2  C    0.405921
     3  C   -0.110836
     4  C   -0.110836
     5  C   -0.005619
     6  C   -0.005619
     7  C   -0.032153
     8  H    0.036284
     9  H    0.036284
    10  H    0.028868
    11  H    0.028868
    12  H    0.024508
 Sum of Mulliken charges =  -0.00000
 Mulliken charges with hydrogens summed into heavy atoms:
               1
     1  F   -0.295670
     2  C    0.405921
     3  C   -0.074552
     4  C   -0.074552
     5  C    0.023249
     6  C    0.023249
     7  C   -0.007645
 Electronic spatial extent (au):  <R**2>=            648.5083
 Charge=              0.0000 electrons
 Dipole moment (field-independent basis, Debye):
    X=              0.0000    Y=              0.0000    Z=             -1.6019  Tot=              1.6019
 Quadrupole moment (field-independent basis, Debye-Ang):
   XX=            -43.3353   YY=            -34.8273   ZZ=            -41.0954
   XY=              0.0000   XZ=              0.0000   YZ=              0.0000
 Traceless Quadrupole moment (field-independent basis, Debye-Ang):
   XX=             -3.5826   YY=              4.9254   ZZ=             -1.3428
   XY=              0.0000   XZ=              0.0000   YZ=              0.0000
 Octapole moment (field-independent basis, Debye-Ang**2):
  XXX=              0.0000  YYY=             -0.0000  ZZZ=             -1.0079  XYY=              0.0000
  XXY=             -0.0000  XXZ=              8.8208  XZZ=              0.0000  YZZ=              0.0000
  YYZ=              4.9068  XYZ=             -0.0000
 Hexadecapole moment (field-independent basis, Debye-Ang**3):
 XXXX=            -49.7379 YYYY=           -269.3723 ZZZZ=           -479.5459 XXXY=             -0.0000
 XXXZ=             -0.0000 YYYX=             -0.0000 YYYZ=              0.0000 ZZZX=             -0.0000
 ZZZY=              0.0000 XXYY=            -64.6911 XXZZ=            -93.5994 YYZZ=           -118.3297
 XXYZ=             -0.0000 YYXZ=             -0.0000 ZZXY=             -0.0000
 N-N= 2.698527114215D+02 E-N=-1.315797356438D+03  KE= 3.305037506388D+02
 Symmetry A1   KE= 2.326253495180D+02
 Symmetry A2   KE= 2.250356749747D+00
 Symmetry B1   KE= 1.063017326245D+01
 Symmetry B2   KE= 8.499787110860D+01
 Calling FoFJK, ICntrl=      2127 FMM=F ISym2X=1 I1Cent= 0 IOpClX= 0 NMat=1 NMatS=1 NMatT=0.
 ***** Axes restored to original set *****
 -------------------------------------------------------------------
 Center     Atomic                   Forces (Hartrees/Bohr)
 Number     Number              X              Y              Z
 -------------------------------------------------------------------
      1        9          -0.000000000   -0.000000000   -0.000008538
      2        6          -0.000000000   -0.000000000   -0.000008962
      3        6           0.000000000    0.000030009    0.000033095
      4        6           0.000000000   -0.000030009    0.000033095
      5        6           0.000000000   -0.000010970   -0.000025899
      6        6           0.000000000    0.000010970   -0.000025899
      7        6          -0.000000000    0.000000000    0.000028537
      8        1           0.000000000    0.000002063    0.000016455
      9        1           0.000000000   -0.000002063    0.000016455
     10        1           0.000000000    0.000017331   -0.000016440
     11        1           0.000000000   -0.000017331   -0.000016440
     12        1          -0.000000000   -0.000000000   -0.000025459
 -------------------------------------------------------------------
 Cartesian Forces:  Max     0.000033095 RMS     0.000015706

 GradGradGradGradGradGradGradGradGradGradGradGradGradGradGradGradGradGrad
 Berny optimization.
 FormGI is forming the generalized inverse of G from B-inverse, IUseBI=4.
 Internal  Forces:  Max     0.000040861 RMS     0.000013012
 Search for a local minimum.
 Step number   1 out of a maximum of   64
 All quantities printed in internal units (Hartrees-Bohrs-Radians)
 Mixed Optimization -- En-DIIS/RFO-DIIS
 Second derivative matrix not updated -- first step.
 ITU=  0
     Eigenvalues ---    0.02209   0.02209   0.02210   0.02210   0.02229
     Eigenvalues ---    0.02253   0.02262   0.02288   0.02306   0.16000
     Eigenvalues ---    0.16000   0.16000   0.16000   0.16000   0.22000
     Eigenvalues ---    0.22000   0.23508   0.25000   0.35823   0.35823
     Eigenvalues ---    0.35874   0.35927   0.35927   0.42883   0.43230
     Eigenvalues ---    0.47162   0.47187   0.47871   0.48287   0.54542
 RFO step:  Lambda=-2.86774283D-08 EMin= 2.20860118D-02
 Linear search not attempted -- first point.
 Iteration  1 RMS(Cart)=  0.00006616 RMS(Int)=  0.00000000
 Iteration  2 RMS(Cart)=  0.00000000 RMS(Int)=  0.00000000
 ClnCor:  largest displacement from symmetrization is 2.39D-12 for atom     1.
 Variable       Old X    -DE/DX   Delta X   Delta X   Delta X     New X
                                 (Linear)    (Quad)   (Total)
    R1        2.55541  -0.00001   0.00000  -0.00002  -0.00002   2.55539
    R2        2.61460   0.00002   0.00000   0.00003   0.00003   2.61463
    R3        2.61460   0.00002   0.00000   0.00003   0.00003   2.61463
    R4        2.62815   0.00004   0.00000   0.00009   0.00009   2.62824
    R5        2.04195   0.00001   0.00000   0.00003   0.00003   2.04198
    R6        2.62815   0.00004   0.00000   0.00009   0.00009   2.62824
    R7        2.04195   0.00001   0.00000   0.00003   0.00003   2.04198
    R8        2.62850   0.00001   0.00000   0.00003   0.00003   2.62852
    R9        2.04359   0.00002   0.00000   0.00006   0.00006   2.04366
   R10        2.62850   0.00001   0.00000   0.00003   0.00003   2.62852
   R11        2.04359   0.00002   0.00000   0.00006   0.00006   2.04366
   R12        2.04279   0.00003   0.00000   0.00007   0.00007   2.04286
    A1        2.07313  -0.00001   0.00000  -0.00005  -0.00005   2.07308
    A2        2.07313  -0.00001   0.00000  -0.00005  -0.00005   2.07308
    A3        2.13692   0.00003   0.00000   0.00011   0.00011   2.13703
    A4        2.06662  -0.00002   0.00000  -0.00007  -0.00007   2.06656
    A5        2.09016  -0.00001   0.00000  -0.00005  -0.00005   2.09011
    A6        2.12640   0.00002   0.00000   0.00012   0.00012   2.12651
    A7        2.06662  -0.00002   0.00000  -0.00007  -0.00007   2.06656
    A8        2.09016  -0.00001   0.00000  -0.00005  -0.00005   2.09011
    A9        2.12640   0.00002   0.00000   0.00012   0.00012   2.12651
   A10        2.10233  -0.00000   0.00000  -0.00002  -0.00002   2.10231
   A11        2.08441   0.00001   0.00000   0.00005   0.00005   2.08446
   A12        2.09644  -0.00000   0.00000  -0.00003  -0.00003   2.09642
   A13        2.10233  -0.00000   0.00000  -0.00002  -0.00002   2.10231
   A14        2.08441   0.00001   0.00000   0.00005   0.00005   2.08446
   A15        2.09644  -0.00000   0.00000  -0.00003  -0.00003   2.09642
   A16        2.09155   0.00002   0.00000   0.00007   0.00007   2.09162
   A17        2.09582  -0.00001   0.00000  -0.00003  -0.00003   2.09578
   A18        2.09582  -0.00001   0.00000  -0.00003  -0.00003   2.09578
    D1        3.14159   0.00000   0.00000   0.00000   0.00000   3.14159
    D2        0.00000   0.00000   0.00000   0.00000   0.00000   0.00000
    D3       -0.00000   0.00000   0.00000   0.00000   0.00000   0.00000
    D4        3.14159   0.00000   0.00000   0.00000   0.00000   3.14159
    D5        3.14159  -0.00000   0.00000  -0.00000   0.00000   3.14159
    D6       -0.00000  -0.00000   0.00000  -0.00000   0.00000   0.00000
    D7        0.00000  -0.00000   0.00000  -0.00000   0.00000   0.00000
    D8        3.14159  -0.00000   0.00000  -0.00000   0.00000   3.14159
    D9        0.00000  -0.00000   0.00000  -0.00000   0.00000   0.00000
   D10        3.14159  -0.00000   0.00000  -0.00000   0.00000   3.14159
   D11        3.14159  -0.00000   0.00000  -0.00000   0.00000   3.14159
   D12        0.00000  -0.00000   0.00000  -0.00000   0.00000   0.00000
   D13        0.00000  -0.00000   0.00000  -0.00000   0.00000   0.00000
   D14        3.14159  -0.00000   0.00000  -0.00000   0.00000   3.14159
   D15        3.14159   0.00000   0.00000   0.00000   0.00000   3.14159
   D16        0.00000   0.00000   0.00000   0.00000   0.00000   0.00000
   D17        0.00000  -0.00000   0.00000  -0.00000   0.00000   0.00000
   D18        3.14159  -0.00000   0.00000  -0.00000   0.00000   3.14159
   D19        3.14159  -0.00000   0.00000  -0.00000   0.00000   3.14159
   D20       -0.00000  -0.00000   0.00000  -0.00000   0.00000   0.00000
   D21       -0.00000   0.00000   0.00000   0.00000   0.00000   0.00000
   D22        3.14159   0.00000   0.00000   0.00000   0.00000   3.14159
   D23        3.14159   0.00000   0.00000   0.00000   0.00000   3.14159
   D24        0.00000   0.00000   0.00000   0.00000   0.00000   0.00000
         Item               Value     Threshold  Converged?
 Maximum Force            0.000041     0.000450     YES
 RMS     Force            0.000013     0.000300     YES
 Maximum Displacement     0.000244     0.001800     YES
 RMS     Displacement     0.000066     0.001200     YES
 Predicted change in Energy=-1.433871D-08
 Optimization completed.
    -- Stationary point found.
                           ----------------------------
                           !   Optimized Parameters   !
                           ! (Angstroms and Degrees)  !
 --------------------------                            --------------------------
 ! Name  Definition              Value          Derivative Info.                !
 --------------------------------------------------------------------------------
 ! R1    R(1,2)                  1.3523         -DE/DX =    0.0                 !
 ! R2    R(2,3)                  1.3836         -DE/DX =    0.0                 !
 ! R3    R(2,4)                  1.3836         -DE/DX =    0.0                 !
 ! R4    R(3,5)                  1.3908         -DE/DX =    0.0                 !
 ! R5    R(3,8)                  1.0806         -DE/DX =    0.0                 !
 ! R6    R(4,6)                  1.3908         -DE/DX =    0.0                 !
 ! R7    R(4,9)                  1.0806         -DE/DX =    0.0                 !
 ! R8    R(5,7)                  1.3909         -DE/DX =    0.0                 !
 ! R9    R(5,10)                 1.0814         -DE/DX =    0.0                 !
 ! R10   R(6,7)                  1.3909         -DE/DX =    0.0                 !
 ! R11   R(6,11)                 1.0814         -DE/DX =    0.0                 !
 ! R12   R(7,12)                 1.081          -DE/DX =    0.0                 !
 ! A1    A(1,2,3)              118.7818         -DE/DX =    0.0                 !
 ! A2    A(1,2,4)              118.7818         -DE/DX =    0.0                 !
 ! A3    A(3,2,4)              122.4364         -DE/DX =    0.0                 !
 ! A4    A(2,3,5)              118.4087         -DE/DX =    0.0                 !
 ! A5    A(2,3,8)              119.7576         -DE/DX =    0.0                 !
 ! A6    A(5,3,8)              121.8337         -DE/DX =    0.0                 !
 ! A7    A(2,4,6)              118.4087         -DE/DX =    0.0                 !
 ! A8    A(2,4,9)              119.7576         -DE/DX =    0.0                 !
 ! A9    A(6,4,9)              121.8337         -DE/DX =    0.0                 !
 ! A10   A(3,5,7)              120.4545         -DE/DX =    0.0                 !
 ! A11   A(3,5,10)             119.4281         -DE/DX =    0.0                 !
 ! A12   A(7,5,10)             120.1174         -DE/DX =    0.0                 !
 ! A13   A(4,6,7)              120.4545         -DE/DX =    0.0                 !
 ! A14   A(4,6,11)             119.4281         -DE/DX =    0.0                 !
 ! A15   A(7,6,11)             120.1174         -DE/DX =    0.0                 !
 ! A16   A(5,7,6)              119.8372         -DE/DX =    0.0                 !
 ! A17   A(5,7,12)             120.0814         -DE/DX =    0.0                 !
 ! A18   A(6,7,12)             120.0814         -DE/DX =    0.0                 !
 ! D1    D(1,2,3,5)            180.0            -DE/DX =    0.0                 !
 ! D2    D(1,2,3,8)              0.0            -DE/DX =    0.0                 !
 ! D3    D(4,2,3,5)              0.0            -DE/DX =    0.0                 !
 ! D4    D(4,2,3,8)            180.0            -DE/DX =    0.0                 !
 ! D5    D(1,2,4,6)            180.0            -DE/DX =    0.0                 !
 ! D6    D(1,2,4,9)              0.0            -DE/DX =    0.0                 !
 ! D7    D(3,2,4,6)              0.0            -DE/DX =    0.0                 !
 ! D8    D(3,2,4,9)            180.0            -DE/DX =    0.0                 !
 ! D9    D(2,3,5,7)              0.0            -DE/DX =    0.0                 !
 ! D10   D(2,3,5,10)           180.0            -DE/DX =    0.0                 !
 ! D11   D(8,3,5,7)            180.0            -DE/DX =    0.0                 !
 ! D12   D(8,3,5,10)             0.0            -DE/DX =    0.0                 !
 ! D13   D(2,4,6,7)              0.0            -DE/DX =    0.0                 !
 ! D14   D(2,4,6,11)           180.0            -DE/DX =    0.0                 !
 ! D15   D(9,4,6,7)            180.0            -DE/DX =    0.0                 !
 ! D16   D(9,4,6,11)             0.0            -DE/DX =    0.0                 !
 ! D17   D(3,5,7,6)              0.0            -DE/DX =    0.0                 !
 ! D18   D(3,5,7,12)           180.0            -DE/DX =    0.0                 !
 ! D19   D(10,5,7,6)           180.0            -DE/DX =    0.0                 !
 ! D20   D(10,5,7,12)            0.0            -DE/DX =    0.0                 !
 ! D21   D(4,6,7,5)              0.0            -DE/DX =    0.0                 !
 ! D22   D(4,6,7,12)           180.0            -DE/DX =    0.0                 !
 ! D23   D(11,6,7,5)           180.0            -DE/DX =    0.0                 !
 ! D24   D(11,6,7,12)            0.0            -DE/DX =    0.0                 !
 --------------------------------------------------------------------------------
 GradGradGradGradGradGradGradGradGradGradGradGradGradGradGradGradGradGrad

                          Input orientation:                          
 ---------------------------------------------------------------------
 Center     Atomic      Atomic             Coordinates (Angstroms)
 Number     Number       Type             X           Y           Z
 ---------------------------------------------------------------------
      1          9           0       -0.000000   -0.000000    2.277442
      2          6           0       -0.000000   -0.000000    0.925178
      3          6           0        0.000000    1.212656    0.259016
      4          6           0       -0.000000   -1.212656    0.259016
      5          6           0        0.000000    1.203600   -1.131714
      6          6           0       -0.000000   -1.203600   -1.131714
      7          6           0        0.000000   -0.000000   -1.828895
      8          1           0        0.000000    2.134369    0.822971
      9          1           0       -0.000000   -2.134369    0.822971
     10          1           0        0.000000    2.142011   -1.669173
     11          1           0       -0.000000   -2.142011   -1.669173
     12          1           0        0.000000   -0.000000   -2.909892
 ---------------------------------------------------------------------
                    Distance matrix (angstroms):
                    1          2          3          4          5
     1  F    0.000000
     2  C    1.352264   0.000000
     3  C    2.354693   1.383585   0.000000
     4  C    2.354693   1.383585   2.425312   0.000000
     5  C    3.615383   2.383161   1.390759   2.787907   0.000000
     6  C    3.615383   2.383161   2.787907   1.390759   2.407200
     7  C    4.106337   2.754073   2.414520   2.414520   1.390940
     8  H    2.582831   2.136815   1.080555   3.394204   2.164977
     9  H    2.582831   2.136815   3.394204   1.080555   3.868182
    10  H    4.490432   3.364353   2.140470   3.869329   1.081424
    11  H    4.490432   3.364353   3.869329   2.140470   3.388506
    12  H    5.187334   3.835070   3.393009   3.393009   2.147224
                    6          7          8          9         10
     6  C    0.000000
     7  C    1.390940   0.000000
     8  H    3.868182   3.404104   0.000000
     9  H    2.164977   3.404104   4.268738   0.000000
    10  H    3.388506   2.147958   2.492156   4.949566   0.000000
    11  H    1.081424   2.147958   4.949566   2.492156   4.284022
    12  H    2.147224   1.080997   4.299976   4.299976   2.475398
                   11         12
    11  H    0.000000
    12  H    2.475398   0.000000
 Stoichiometry    C6H5F
 Framework group  C2V[C2(HCCF),SGV(C4H4)]
 Deg. of freedom    11
 Full point group                 C2V     NOp   4
 Largest Abelian subgroup         C2V     NOp   4
 Largest concise Abelian subgroup C2      NOp   2
                         Standard orientation:                         
 ---------------------------------------------------------------------
 Center     Atomic      Atomic             Coordinates (Angstroms)
 Number     Number       Type             X           Y           Z
 ---------------------------------------------------------------------
      1          9           0        0.000000   -0.000000    2.277442
      2          6           0        0.000000   -0.000000    0.925178
      3          6           0        0.000000    1.212656    0.259016
      4          6           0       -0.000000   -1.212656    0.259016
      5          6           0        0.000000    1.203600   -1.131714
      6          6           0       -0.000000   -1.203600   -1.131714
      7          6           0       -0.000000    0.000000   -1.828895
      8          1           0        0.000000    2.134369    0.822971
      9          1           0       -0.000000   -2.134369    0.822971
     10          1           0        0.000000    2.142011   -1.669173
     11          1           0       -0.000000   -2.142011   -1.669173
     12          1           0       -0.000000    0.000000   -2.909892
 ---------------------------------------------------------------------
 Rotational constants (GHZ):           5.7110726           2.5741837           1.7743989
 1\1\GINC-GAMBA\FOpt\RB3LYP\Gen\C6H5F1\IRIKURA\27-Sep-2023\0\\# b3lyp/g
 en opt freq CPHF(Grid=OneStep)\\fluorobenzene, B3LYP/pcseg-2\\0,1\F,0.
 ,0.,2.277442\C,0.,0.,0.925178\C,0.,1.212656,0.259016\C,0.,-1.212656,0.
 259016\C,0.,1.2036,-1.131714\C,0.,-1.2036,-1.131714\C,0.,0.,-1.828895\
 H,0.,2.134369,0.822971\H,0.,-2.134369,0.822971\H,0.,2.142011,-1.669173
 \H,0.,-2.142011,-1.669173\H,0.,0.,-2.909892\\Version=ES64L-G16RevB.01\
 State=1-A1\HF=-331.6200012\RMSD=5.328e-09\RMSF=1.571e-05\Dipole=0.,0.,
 -0.6302165\Quadrupole=-2.6635867,3.6619101,-0.9983234,0.,0.,0.\PG=C02V
  [C2(H1C1C1F1),SGV(C4H4)]\\@


 ACTORS ARE SO FORTUNATE.  THEY CAN CHOOSE WHETHER
 THEY WILL APPEAR IN A TRAGEDY OR IN COMEDY,
 WHETHER THEY WILL SUFFER OF MAKE MERRY,
 LAUGH OR SHED TEARS.  BUT IN REAL LIFE IT IS DIFFERENT.
 MOST MEN AND WOMEN ARE FORCED TO PERFORM
 PARTS FOR WHICH THEY HAVE NO QUALIFICATIONS.
 THE WORLD IS A STAGE, BUT THE PLAY IS BADLY CAST.

                                   -- OSCAR WILDE
 Job cpu time:       0 days  0 hours  3 minutes 36.9 seconds.
 Elapsed time:       0 days  0 hours  0 minutes 54.3 seconds.
 File lengths (MBytes):  RWF=     49 Int=      0 D2E=      0 Chk=      7 Scr=      1
 Normal termination of Gaussian 16 at Wed Sep 27 22:33:27 2023.
 Link1:  Proceeding to internal job step number  2.
 ------------------------------------------------------------------
 #N Geom=AllCheck Guess=TCheck SCRF=Check GenChk RB3LYP/ChkBas Freq
 ------------------------------------------------------------------
 1/10=4,29=7,30=1,38=1,40=1/1,3;
 2/12=2,40=1/2;
 3/5=7,6=2,11=2,14=-4,25=1,30=1,67=1,70=2,71=2,74=-5,82=7,116=1,140=1/1,2,3;
 4/5=101/1;
 5/5=2,38=6,98=1/2;
 8/6=4,10=90,11=11/1;
 11/6=1,8=1,9=11,15=111,16=1/1,2,10;
 10/6=1,60=-420/2;
 6/7=2,8=2,9=2,10=2,28=1/1;
 7/8=1,10=1,25=1/1,2,3,16;
 1/10=4,30=1/3;
 99//99;
 Structure from the checkpoint file:  "phf.chk"
 ----------------------------
 fluorobenzene, B3LYP/pcseg-2
 ----------------------------
 Charge =  0 Multiplicity = 1
 Redundant internal coordinates found in file.  (old form).
 F,0,0.,0.,2.277442
 C,0,0.,0.,0.925178
 C,0,0.,1.212656,0.259016
 C,0,0.,-1.212656,0.259016
 C,0,0.,1.2036,-1.131714
 C,0,0.,-1.2036,-1.131714
 C,0,0.,0.,-1.828895
 H,0,0.,2.134369,0.822971
 H,0,0.,-2.134369,0.822971
 H,0,0.,2.142011,-1.669173
 H,0,0.,-2.142011,-1.669173
 H,0,0.,0.,-2.909892
 Recover connectivity data from disk.

 GradGradGradGradGradGradGradGradGradGradGradGradGradGradGradGradGradGrad
 Berny optimization.
 Initialization pass.
                           ----------------------------
                           !    Initial Parameters    !
                           ! (Angstroms and Degrees)  !
 --------------------------                            --------------------------
 ! Name  Definition              Value          Derivative Info.                !
 --------------------------------------------------------------------------------
 ! R1    R(1,2)                  1.3523         calculate D2E/DX2 analytically  !
 ! R2    R(2,3)                  1.3836         calculate D2E/DX2 analytically  !
 ! R3    R(2,4)                  1.3836         calculate D2E/DX2 analytically  !
 ! R4    R(3,5)                  1.3908         calculate D2E/DX2 analytically  !
 ! R5    R(3,8)                  1.0806         calculate D2E/DX2 analytically  !
 ! R6    R(4,6)                  1.3908         calculate D2E/DX2 analytically  !
 ! R7    R(4,9)                  1.0806         calculate D2E/DX2 analytically  !
 ! R8    R(5,7)                  1.3909         calculate D2E/DX2 analytically  !
 ! R9    R(5,10)                 1.0814         calculate D2E/DX2 analytically  !
 ! R10   R(6,7)                  1.3909         calculate D2E/DX2 analytically  !
 ! R11   R(6,11)                 1.0814         calculate D2E/DX2 analytically  !
 ! R12   R(7,12)                 1.081          calculate D2E/DX2 analytically  !
 ! A1    A(1,2,3)              118.7818         calculate D2E/DX2 analytically  !
 ! A2    A(1,2,4)              118.7818         calculate D2E/DX2 analytically  !
 ! A3    A(3,2,4)              122.4364         calculate D2E/DX2 analytically  !
 ! A4    A(2,3,5)              118.4087         calculate D2E/DX2 analytically  !
 ! A5    A(2,3,8)              119.7576         calculate D2E/DX2 analytically  !
 ! A6    A(5,3,8)              121.8337         calculate D2E/DX2 analytically  !
 ! A7    A(2,4,6)              118.4087         calculate D2E/DX2 analytically  !
 ! A8    A(2,4,9)              119.7576         calculate D2E/DX2 analytically  !
 ! A9    A(6,4,9)              121.8337         calculate D2E/DX2 analytically  !
 ! A10   A(3,5,7)              120.4545         calculate D2E/DX2 analytically  !
 ! A11   A(3,5,10)             119.4281         calculate D2E/DX2 analytically  !
 ! A12   A(7,5,10)             120.1174         calculate D2E/DX2 analytically  !
 ! A13   A(4,6,7)              120.4545         calculate D2E/DX2 analytically  !
 ! A14   A(4,6,11)             119.4281         calculate D2E/DX2 analytically  !
 ! A15   A(7,6,11)             120.1174         calculate D2E/DX2 analytically  !
 ! A16   A(5,7,6)              119.8372         calculate D2E/DX2 analytically  !
 ! A17   A(5,7,12)             120.0814         calculate D2E/DX2 analytically  !
 ! A18   A(6,7,12)             120.0814         calculate D2E/DX2 analytically  !
 ! D1    D(1,2,3,5)            180.0            calculate D2E/DX2 analytically  !
 ! D2    D(1,2,3,8)              0.0            calculate D2E/DX2 analytically  !
 ! D3    D(4,2,3,5)              0.0            calculate D2E/DX2 analytically  !
 ! D4    D(4,2,3,8)            180.0            calculate D2E/DX2 analytically  !
 ! D5    D(1,2,4,6)            180.0            calculate D2E/DX2 analytically  !
 ! D6    D(1,2,4,9)              0.0            calculate D2E/DX2 analytically  !
 ! D7    D(3,2,4,6)              0.0            calculate D2E/DX2 analytically  !
 ! D8    D(3,2,4,9)            180.0            calculate D2E/DX2 analytically  !
 ! D9    D(2,3,5,7)              0.0            calculate D2E/DX2 analytically  !
 ! D10   D(2,3,5,10)           180.0            calculate D2E/DX2 analytically  !
 ! D11   D(8,3,5,7)            180.0            calculate D2E/DX2 analytically  !
 ! D12   D(8,3,5,10)             0.0            calculate D2E/DX2 analytically  !
 ! D13   D(2,4,6,7)              0.0            calculate D2E/DX2 analytically  !
 ! D14   D(2,4,6,11)           180.0            calculate D2E/DX2 analytically  !
 ! D15   D(9,4,6,7)            180.0            calculate D2E/DX2 analytically  !
 ! D16   D(9,4,6,11)             0.0            calculate D2E/DX2 analytically  !
 ! D17   D(3,5,7,6)              0.0            calculate D2E/DX2 analytically  !
 ! D18   D(3,5,7,12)           180.0            calculate D2E/DX2 analytically  !
 ! D19   D(10,5,7,6)           180.0            calculate D2E/DX2 analytically  !
 ! D20   D(10,5,7,12)            0.0            calculate D2E/DX2 analytically  !
 ! D21   D(4,6,7,5)              0.0            calculate D2E/DX2 analytically  !
 ! D22   D(4,6,7,12)           180.0            calculate D2E/DX2 analytically  !
 ! D23   D(11,6,7,5)           180.0            calculate D2E/DX2 analytically  !
 ! D24   D(11,6,7,12)            0.0            calculate D2E/DX2 analytically  !
 --------------------------------------------------------------------------------
 Trust Radius=3.00D-01 FncErr=1.00D-07 GrdErr=1.00D-07 EigMax=2.50D+02 EigMin=1.00D-04
 Number of steps in this run=      2 maximum allowed number of steps=      2.
 GradGradGradGradGradGradGradGradGradGradGradGradGradGradGradGradGradGrad

                          Input orientation:                          
 ---------------------------------------------------------------------
 Center     Atomic      Atomic             Coordinates (Angstroms)
 Number     Number       Type             X           Y           Z
 ---------------------------------------------------------------------
      1          9           0       -0.000000    0.000000    2.277442
      2          6           0       -0.000000    0.000000    0.925178
      3          6           0        0.000000    1.212656    0.259016
      4          6           0       -0.000000   -1.212656    0.259016
      5          6           0        0.000000    1.203600   -1.131714
      6          6           0       -0.000000   -1.203600   -1.131714
      7          6           0        0.000000   -0.000000   -1.828895
      8          1           0        0.000000    2.134369    0.822971
      9          1           0       -0.000000   -2.134369    0.822971
     10          1           0        0.000000    2.142011   -1.669173
     11          1           0       -0.000000   -2.142011   -1.669173
     12          1           0        0.000000   -0.000000   -2.909892
 ---------------------------------------------------------------------
                    Distance matrix (angstroms):
                    1          2          3          4          5
     1  F    0.000000
     2  C    1.352264   0.000000
     3  C    2.354693   1.383585   0.000000
     4  C    2.354693   1.383585   2.425312   0.000000
     5  C    3.615383   2.383161   1.390759   2.787907   0.000000
     6  C    3.615383   2.383161   2.787907   1.390759   2.407200
     7  C    4.106337   2.754073   2.414520   2.414520   1.390940
     8  H    2.582831   2.136815   1.080555   3.394204   2.164977
     9  H    2.582831   2.136815   3.394204   1.080555   3.868182
    10  H    4.490432   3.364353   2.140470   3.869329   1.081424
    11  H    4.490432   3.364353   3.869329   2.140470   3.388506
    12  H    5.187334   3.835070   3.393009   3.393009   2.147224
                    6          7          8          9         10
     6  C    0.000000
     7  C    1.390940   0.000000
     8  H    3.868182   3.404104   0.000000
     9  H    2.164977   3.404104   4.268738   0.000000
    10  H    3.388506   2.147958   2.492156   4.949566   0.000000
    11  H    1.081424   2.147958   4.949566   2.492156   4.284022
    12  H    2.147224   1.080997   4.299976   4.299976   2.475398
                   11         12
    11  H    0.000000
    12  H    2.475398   0.000000
 Stoichiometry    C6H5F
 Framework group  C2V[C2(HCCF),SGV(C4H4)]
 Deg. of freedom    11
 Full point group                 C2V     NOp   4
 Largest Abelian subgroup         C2V     NOp   4
 Largest concise Abelian subgroup C2      NOp   2
                         Standard orientation:                         
 ---------------------------------------------------------------------
 Center     Atomic      Atomic             Coordinates (Angstroms)
 Number     Number       Type             X           Y           Z
 ---------------------------------------------------------------------
      1          9           0        0.000000    0.000000    2.277442
      2          6           0        0.000000    0.000000    0.925178
      3          6           0        0.000000    1.212656    0.259016
      4          6           0       -0.000000   -1.212656    0.259016
      5          6           0        0.000000    1.203600   -1.131714
      6          6           0       -0.000000   -1.203600   -1.131714
      7          6           0        0.000000   -0.000000   -1.828895
      8          1           0        0.000000    2.134369    0.822971
      9          1           0       -0.000000   -2.134369    0.822971
     10          1           0        0.000000    2.142011   -1.669173
     11          1           0       -0.000000   -2.142011   -1.669173
     12          1           0        0.000000   -0.000000   -2.909892
 ---------------------------------------------------------------------
 Rotational constants (GHZ):           5.7110726           2.5741837           1.7743989
 Basis read from chk: "phf.chk" (5D, 7F)
 There are   126 symmetry adapted cartesian basis functions of A1  symmetry.
 There are    40 symmetry adapted cartesian basis functions of A2  symmetry.
 There are    57 symmetry adapted cartesian basis functions of B1  symmetry.
 There are    97 symmetry adapted cartesian basis functions of B2  symmetry.
 There are   106 symmetry adapted basis functions of A1  symmetry.
 There are    38 symmetry adapted basis functions of A2  symmetry.
 There are    52 symmetry adapted basis functions of B1  symmetry.
 There are    84 symmetry adapted basis functions of B2  symmetry.
   280 basis functions,   447 primitive gaussians,   320 cartesian basis functions
    25 alpha electrons       25 beta electrons
       nuclear repulsion energy       269.8527114215 Hartrees.
 NAtoms=   12 NActive=   12 NUniq=    8 SFac= 2.25D+00 NAtFMM=   60 NAOKFM=F Big=F
 Integral buffers will be    131072 words long.
 Raffenetti 2 integral format.
 Two-electron integral symmetry is turned on.
 One-electron integrals computed using PRISM.
 NBasis=   280 RedAO= T EigKep=  2.58D-05  NBF=   106    38    52    84
 NBsUse=   280 1.00D-06 EigRej= -1.00D+00 NBFU=   106    38    52    84
 Initial guess from the checkpoint file:  "phf.chk"
 B after Tr=     0.000000   -0.000000    0.000000
         Rot=    1.000000   -0.000000    0.000000   -0.000000 Ang=   0.00 deg.
 Initial guess orbital symmetries:
       Occupied  (A1) (A1) (A1) (B2) (B2) (A1) (A1) (A1) (A1) (B2)
                 (A1) (B2) (A1) (A1) (A1) (B2) (B1) (A1) (B2) (B2)
                 (A1) (B1) (B2) (A2) (B1)
       Virtual   (A2) (B1) (A1) (B2) (A1) (A1) (B2) (A1) (B1) (A1)
                 (B1) (A1) (B2) (A2) (B2) (B1) (A1) (B2) (A1) (A2)
                 (B1) (A1) (A1) (A1) (B2) (B2) (A1) (B2) (B1) (B2)
                 (A1) (A1) (B2) (A1) (B2) (B2) (A1) (A1) (B1) (A1)
                 (B2) (B2) (B2) (A1) (B1) (A1) (A1) (B2) (A2) (A2)
                 (B1) (A2) (B2) (A1) (A1) (B1) (A1) (B2) (A1) (A1)
                 (B1) (A1) (B2) (A1) (B2) (B1) (A2) (B2) (B1) (A1)
                 (B2) (A2) (B1) (B1) (A1) (A2) (B2) (A1) (B2) (B1)
                 (B2) (A2) (A1) (B1) (A2) (B2) (A1) (B1) (A1) (B1)
                 (B2) (A2) (A1) (A1) (B2) (A1) (A1) (A2) (B2) (A1)
                 (A1) (B2) (B2) (B2) (A1) (B1) (A1) (A2) (B2) (A1)
                 (A1) (B2) (B2) (A1) (B1) (B2) (A1) (A1) (B2) (A1)
                 (B2) (A1) (B2) (B1) (A2) (B1) (B2) (A2) (B1) (A1)
                 (A2) (B1) (B2) (B1) (A1) (A1) (A2) (B2) (B1) (B2)
                 (A1) (B2) (A1) (A2) (A1) (B2) (A1) (B1) (A1) (A1)
                 (B2) (B2) (A1) (A2) (B1) (A2) (B1) (B2) (A1) (B1)
                 (A1) (A2) (A1) (B1) (B2) (B2) (A2) (A1) (A1) (B2)
                 (B1) (B2) (A1) (A2) (A2) (B2) (A1) (B1) (A2) (B1)
                 (A1) (B1) (A2) (B2) (B1) (A1) (B2) (A2) (A1) (B1)
                 (B1) (A2) (B1) (B2) (A2) (B2) (A1) (A2) (B1) (B2)
                 (A2) (A1) (B1) (B1) (A1) (A2) (B2) (A1) (A1) (B2)
                 (B2) (B1) (B2) (A1) (B2) (B2) (A1) (B1) (A1) (B1)
                 (A2) (A1) (B2) (A2) (A1) (B2) (A1) (B2) (B1) (A1)
                 (A2) (B2) (A1) (B2) (A1) (B2) (B1) (A1) (B2) (A1)
                 (B2) (A1) (A1) (A1) (B2) (A1) (B2) (A1) (B2) (A2)
                 (A1) (B1) (A1) (B2) (A1)
 Requested convergence on RMS density matrix=1.00D-08 within 128 cycles.
 Requested convergence on MAX density matrix=1.00D-06.
 Requested convergence on             energy=1.00D-06.
 No special actions if energy rises.
 SCF Done:  E(RB3LYP) =  -331.620001188     A.U. after    1 cycles
            NFock=  1  Conv=0.31D-08     -V/T= 2.0034
 DoSCS=F DFT=T ScalE2(SS,OS)=  1.000000  1.000000
 Range of M.O.s used for correlation:     1   280
 NBasis=   280 NAE=    25 NBE=    25 NFC=     0 NFV=     0
 NROrb=    280 NOA=    25 NOB=    25 NVA=   255 NVB=   255

 **** Warning!!: The largest alpha MO coefficient is  0.33550578D+02

 Symmetrizing basis deriv contribution to polar:
 IMax=3 JMax=2 DiffMx= 0.00D+00
 G2DrvN: will do    13 centers at a time, making    1 passes.
 Calling FoFCou, ICntrl=  3107 FMM=F I1Cent=   0 AccDes= 0.00D+00.
 End of G2Drv F.D. properties file   721 does not exist.
 End of G2Drv F.D. properties file   722 does not exist.
 End of G2Drv F.D. properties file   788 does not exist.
          IDoAtm=111111111111
          Differentiating once with respect to electric field.
                with respect to dipole field.
          Differentiating once with respect to nuclear coordinates.
 CalDSu exits because no D1Ps are significant.
          There are    27 degrees of freedom in the 1st order CPHF.  IDoFFX=4 NUNeed=    27.
     27 vectors produced by pass  0 Test12= 2.36D-14 3.70D-09 XBig12= 9.67D+01 6.19D+00.
 AX will form    27 AO Fock derivatives at one time.
     27 vectors produced by pass  1 Test12= 2.36D-14 3.70D-09 XBig12= 2.65D+01 1.15D+00.
     27 vectors produced by pass  2 Test12= 2.36D-14 3.70D-09 XBig12= 6.83D-01 1.32D-01.
     27 vectors produced by pass  3 Test12= 2.36D-14 3.70D-09 XBig12= 5.32D-03 8.81D-03.
     27 vectors produced by pass  4 Test12= 2.36D-14 3.70D-09 XBig12= 2.31D-05 6.83D-04.
     27 vectors produced by pass  5 Test12= 2.36D-14 3.70D-09 XBig12= 4.85D-08 3.21D-05.
     15 vectors produced by pass  6 Test12= 2.36D-14 3.70D-09 XBig12= 6.36D-11 1.04D-06.
      3 vectors produced by pass  7 Test12= 2.36D-14 3.70D-09 XBig12= 6.03D-14 4.22D-08.
 InvSVY:  IOpt=1 It=  1 EMax= 8.88D-15
 Solved reduced A of dimension   180 with    27 vectors.
 Isotropic polarizability for W=    0.000000       65.56 Bohr**3.
 End of Minotr F.D. properties file   721 does not exist.
 End of Minotr F.D. properties file   722 does not exist.
 End of Minotr F.D. properties file   788 does not exist.

[...]
 Alpha virt. eigenvalues --    0.60713   0.60839   0.61988   0.63697   0.63983
 Alpha virt. eigenvalues --    0.64386   0.64652   0.67953   0.69278   0.71441
 Alpha virt. eigenvalues --    0.72578   0.73866   0.74005   0.75372   0.78191
 Alpha virt. eigenvalues --    0.78501   0.79331   0.83207   0.84965   0.87675
 Alpha virt. eigenvalues --    0.88389   0.90215   0.91163   0.93119   0.95967
 Alpha virt. eigenvalues --    0.96653   0.97895   0.98257   0.98527   0.98640
 Alpha virt. eigenvalues --    0.99433   0.99910   1.01428   1.01490   1.02033
 Alpha virt. eigenvalues --    1.04367   1.09951   1.11725   1.12650   1.18012
 Alpha virt. eigenvalues --    1.19538   1.19542   1.20703   1.22604   1.23055
 Alpha virt. eigenvalues --    1.25979   1.26757   1.28930   1.32093   1.32635
 Alpha virt. eigenvalues --    1.33687   1.34808   1.39305   1.40215   1.43918
 Alpha virt. eigenvalues --    1.44692   1.46161   1.46936   1.48464   1.48793
 Alpha virt. eigenvalues --    1.49117   1.51094   1.51319   1.51806   1.51910
 Alpha virt. eigenvalues --    1.52503   1.53854   1.55314   1.57530   1.60499
 Alpha virt. eigenvalues --    1.64491   1.64760   1.69429   1.70937   1.71235
 Alpha virt. eigenvalues --    1.71563   1.73446   1.74293   1.77564   1.77617
 Alpha virt. eigenvalues --    1.79822   1.81087   1.84996   1.86178   1.86230
 Alpha virt. eigenvalues --    1.87192   1.88473   1.89255   1.90373   1.91482
 Alpha virt. eigenvalues --    1.92277   1.94141   1.95479   1.95689   1.97625
 Alpha virt. eigenvalues --    1.98645   1.98645   1.99114   2.00015   2.00664
 Alpha virt. eigenvalues --    2.03070   2.05408   2.05841   2.06154   2.08791
 Alpha virt. eigenvalues --    2.12942   2.14257   2.15225   2.15555   2.16475
 Alpha virt. eigenvalues --    2.16931   2.17168   2.19645   2.20419   2.22269
 Alpha virt. eigenvalues --    2.24116   2.25390   2.26347   2.27923   2.34883
 Alpha virt. eigenvalues --    2.36746   2.38101   2.38249   2.39715   2.40050
 Alpha virt. eigenvalues --    2.41242   2.42759   2.44652   2.49405   2.51257
 Alpha virt. eigenvalues --    2.52870   2.53382   2.54630   2.55177   2.55499
 Alpha virt. eigenvalues --    2.55875   2.58890   2.64014   2.64050   2.64539
 Alpha virt. eigenvalues --    2.65643   2.65950   2.67799   2.68677   2.72853
 Alpha virt. eigenvalues --    2.74888   2.75381   2.76967   2.79176   2.81193
 Alpha virt. eigenvalues --    2.82790   2.84497   2.85200   2.85531   2.87691
 Alpha virt. eigenvalues --    2.87941   2.91481   2.95845   2.98288   3.00581
 Alpha virt. eigenvalues --    3.00688   3.02939   3.07538   3.14471   3.16229
 Alpha virt. eigenvalues --    3.17310   3.18015   3.18668   3.22628   3.23308
 Alpha virt. eigenvalues --    3.25249   3.26816   3.27516   3.33719   3.36005
 Alpha virt. eigenvalues --    3.47613   3.51180   3.55472   3.55694   3.58562
 Alpha virt. eigenvalues --    3.60120   3.61401   3.63024   3.63859   3.65908
 Alpha virt. eigenvalues --    3.66478   3.69111   3.69145   3.69813   3.72028
 Alpha virt. eigenvalues --    3.73896   3.80063   3.81890   3.82550   3.85339
 Alpha virt. eigenvalues --    3.85890   3.87158   3.92439   3.99195   4.05881
 Alpha virt. eigenvalues --    4.07871   4.18219   4.21389   4.26106   4.27706
 Alpha virt. eigenvalues --    4.27985   4.30435   4.33182   4.33648   4.34820
 Alpha virt. eigenvalues --    4.39059   4.40945   4.47774   4.50926   4.57455
 Alpha virt. eigenvalues --    4.59426   4.61514   4.61554   4.63884   4.65537
 Alpha virt. eigenvalues --    4.65773   4.67672   4.68481   4.70457   4.73707
 Alpha virt. eigenvalues --    4.79769   4.80395   4.82635   4.83606   4.84613
 Alpha virt. eigenvalues --    4.88140   4.88599   4.93556   4.93998   5.08448
 Alpha virt. eigenvalues --    5.08915   5.09087   5.10150   5.12882   5.18150
 Alpha virt. eigenvalues --    5.20762   5.25022   5.30794   5.32497   5.33257
 Alpha virt. eigenvalues --    5.34433   5.34848   5.36656   5.37867   5.42948
 Alpha virt. eigenvalues --    5.45320   5.57290   5.57928   5.59718   5.63846
 Alpha virt. eigenvalues --    5.67875   5.70369   5.75429   5.76802   5.80484
 Alpha virt. eigenvalues --    5.81953   5.83443   5.90433   5.99807   5.99864
 Alpha virt. eigenvalues --    6.02640   6.09214   6.09355   6.15058   6.18147
 Alpha virt. eigenvalues --    6.23363   6.24261   6.28253   6.34909   6.40416
 Alpha virt. eigenvalues --    6.48335   6.50977   6.52990   6.57211   6.57982
 Alpha virt. eigenvalues --    6.62443   6.68869   6.73834   6.82257   6.89855
 Alpha virt. eigenvalues --    7.08118   7.30261   7.31203   7.33254   7.33260
 Alpha virt. eigenvalues --    7.35320   7.36865   7.46719   7.53643   7.64819
 Alpha virt. eigenvalues --    7.67271   7.69201   7.88447   8.00526   8.04387
 Alpha virt. eigenvalues --    8.14215   8.15689   8.21008   8.21117   8.46729
 Alpha virt. eigenvalues --    8.49957   8.50653   8.55404   8.55500   8.55597
 Alpha virt. eigenvalues --    8.69329   8.77935   8.82410   8.87837   9.04418
 Alpha virt. eigenvalues --    9.10212   9.16566   9.29616   9.30811   9.37165
 Alpha virt. eigenvalues --    9.45584   9.46796   9.50905   9.51635   9.67739
 Alpha virt. eigenvalues --    9.74986   9.86774   9.98858  10.02827  10.11571
 Alpha virt. eigenvalues --   10.18437  10.36492  10.45903  11.38454  11.41055
 Alpha virt. eigenvalues --   11.61761  11.66541  11.75713  11.77596  11.91199
 Alpha virt. eigenvalues --   12.30389  12.95739  13.31063  13.64072  13.71789
 Alpha virt. eigenvalues --   13.92755  14.17441  14.63432  20.49060  20.75698
 Alpha virt. eigenvalues --   20.76889  21.05274  21.06190  21.26542  21.44493
 Alpha virt. eigenvalues --   21.50887  21.73668  21.75841  21.76259  21.88550
 Alpha virt. eigenvalues --   22.33157  22.38060  22.48537  22.75108  22.80222
 Alpha virt. eigenvalues --   23.20930  23.53507  23.67226  23.70637  23.79606
 Alpha virt. eigenvalues --   23.80288  24.26504  47.06437  47.51466  48.00263
 Alpha virt. eigenvalues --   55.09143
          Condensed to atoms (all electrons):
               1          2          3          4          5          6
     1  F    9.396937   0.218742  -0.075575  -0.075575  -0.000634  -0.000634
     2  C    0.218742   4.935627   0.410671   0.410671  -0.138102  -0.138102
     3  C   -0.075575   0.410671   5.082353  -0.085171   0.461436   0.044355
     4  C   -0.075575   0.410671  -0.085171   5.082353   0.044355   0.461436
     5  C   -0.000634  -0.138102   0.461436   0.044355   5.025602  -0.145216
     6  C   -0.000634  -0.138102   0.044355   0.461436  -0.145216   5.025602
     7  C   -0.007790   0.023764  -0.120264  -0.120264   0.476804   0.476804
     8  H   -0.013084  -0.034108   0.446875   0.002264  -0.019968  -0.000808
     9  H   -0.013084  -0.034108   0.002264   0.446875  -0.000808  -0.019968
    10  H   -0.000144   0.004636  -0.024576  -0.001958   0.447496   0.003882
    11  H   -0.000144   0.004636  -0.001958  -0.024576   0.003882   0.447496
    12  H   -0.000100  -0.001935   0.003198   0.003198  -0.026623  -0.026623
               7          8          9         10         11         12
     1  F   -0.007790  -0.013084  -0.013084  -0.000144  -0.000144  -0.000100
     2  C    0.023764  -0.034108  -0.034108   0.004636   0.004636  -0.001935
     3  C   -0.120264   0.446875   0.002264  -0.024576  -0.001958   0.003198
     4  C   -0.120264   0.002264   0.446875  -0.001958  -0.024576   0.003198
     5  C    0.476804  -0.019968  -0.000808   0.447496   0.003882  -0.026623
     6  C    0.476804  -0.000808  -0.019968   0.003882   0.447496  -0.026623
     7  C    5.032315   0.004209   0.004209  -0.026663  -0.026663   0.448783
     8  H    0.004209   0.442577   0.000231  -0.007135  -0.000030   0.000138
     9  H    0.004209   0.000231   0.442577  -0.000030  -0.007135   0.000138
    10  H   -0.026663  -0.007135  -0.000030   0.463173   0.000009  -0.007444
    11  H   -0.026663  -0.000030  -0.007135   0.000009   0.463173  -0.007444
    12  H    0.448783   0.000138   0.000138  -0.007444  -0.007444   0.469677
          Atomic-Atomic Spin Densities.
               1          2          3          4          5          6
     1  F    0.000000   0.000000   0.000000   0.000000   0.000000   0.000000
     2  C    0.000000   0.000000   0.000000   0.000000   0.000000   0.000000
     3  C    0.000000   0.000000   0.000000   0.000000   0.000000   0.000000
     4  C    0.000000   0.000000   0.000000   0.000000   0.000000   0.000000
     5  C    0.000000   0.000000   0.000000   0.000000   0.000000   0.000000
     6  C    0.000000   0.000000   0.000000   0.000000   0.000000   0.000000
     7  C    0.000000   0.000000   0.000000   0.000000   0.000000   0.000000
     8  H    0.000000   0.000000   0.000000   0.000000   0.000000   0.000000
     9  H    0.000000   0.000000   0.000000   0.000000   0.000000   0.000000
    10  H    0.000000   0.000000   0.000000   0.000000   0.000000   0.000000
    11  H    0.000000   0.000000   0.000000   0.000000   0.000000   0.000000
    12  H    0.000000   0.000000   0.000000   0.000000   0.000000   0.000000
               7          8          9         10         11         12
     1  F    0.000000   0.000000   0.000000   0.000000   0.000000   0.000000
     2  C    0.000000   0.000000   0.000000   0.000000   0.000000   0.000000
     3  C    0.000000   0.000000   0.000000   0.000000   0.000000   0.000000
     4  C    0.000000   0.000000   0.000000   0.000000   0.000000   0.000000
     5  C    0.000000   0.000000   0.000000   0.000000   0.000000   0.000000
     6  C    0.000000   0.000000   0.000000   0.000000   0.000000   0.000000
     7  C    0.000000   0.000000   0.000000   0.000000   0.000000   0.000000
     8  H    0.000000   0.000000   0.000000   0.000000   0.000000   0.000000
     9  H    0.000000   0.000000   0.000000   0.000000   0.000000   0.000000
    10  H    0.000000   0.000000   0.000000   0.000000   0.000000   0.000000
    11  H    0.000000   0.000000   0.000000   0.000000   0.000000   0.000000
    12  H    0.000000   0.000000   0.000000   0.000000   0.000000   0.000000
 Mulliken charges and spin densities:
               1          2
     1  F   -0.428913   0.000000
     2  C    0.337607   0.000000
     3  C   -0.143609   0.000000
     4  C   -0.143609   0.000000
     5  C   -0.128226   0.000000
     6  C   -0.128226   0.000000
     7  C   -0.165245   0.000000
     8  H    0.178839   0.000000
     9  H    0.178839   0.000000
    10  H    0.148754   0.000000
    11  H    0.148754   0.000000
    12  H    0.145035   0.000000
 Sum of Mulliken charges =  -0.00000   0.00000
 Mulliken charges and spin densities with hydrogens summed into heavy atoms:
               1          2
     1  F   -0.428913   0.000000
     2  C    0.337607   0.000000
     3  C    0.035229   0.000000
     4  C    0.035229   0.000000
     5  C    0.020529   0.000000
     6  C    0.020529   0.000000
     7  C   -0.020210   0.000000
 Electronic spatial extent (au):  <R**2>=            648.7697
 Charge=             -0.0000 electrons
 Dipole moment (field-independent basis, Debye):
    X=             -0.0000    Y=             -0.0000    Z=             -1.8038  Tot=              1.8038
 Quadrupole moment (field-independent basis, Debye-Ang):
   XX=            -44.0027   YY=            -34.2785   ZZ=            -41.3284
   XY=              0.0000   XZ=              0.0000   YZ=             -0.0000
 Traceless Quadrupole moment (field-independent basis, Debye-Ang):
   XX=             -4.1328   YY=              5.5913   ZZ=             -1.4585
   XY=              0.0000   XZ=              0.0000   YZ=             -0.0000
 Octapole moment (field-independent basis, Debye-Ang**2):
  XXX=              0.0000  YYY=             -0.0000  ZZZ=             -2.3902  XYY=              0.0000
  XXY=              0.0000  XXZ=              9.5137  XZZ=              0.0000  YZZ=             -0.0000
  YYZ=              4.8804  XYZ=             -0.0000
 Hexadecapole moment (field-independent basis, Debye-Ang**3):
 XXXX=            -50.8055 YYYY=           -263.2917 ZZZZ=           -476.8854 XXXY=             -0.0000
 XXXZ=             -0.0000 YYYX=             -0.0000 YYYZ=              0.0000 ZZZX=             -0.0000
 ZZZY=              0.0000 XXYY=            -64.9390 XXZZ=            -93.7221 YYZZ=           -115.4398
 XXYZ=              0.0000 YYXZ=             -0.0000 ZZXY=             -0.0000
 N-N= 2.698527114215D+02 E-N=-1.313848235648D+03  KE= 3.293858408201D+02
 Symmetry A1   KE= 2.323881047437D+02
 Symmetry A2   KE= 2.065438392152D+00
 Symmetry B1   KE= 1.023882565591D+01
 Symmetry B2   KE= 8.469347202835D+01
 Symmetry A1   SP= 0.000000000000D+00
 Symmetry A2   SP= 0.000000000000D+00
 Symmetry B1   SP= 0.000000000000D+00
 Symmetry B2   SP= 0.000000000000D+00
                          Isotropic Fermi Contact Couplings
        Atom                 a.u.       MegaHertz       Gauss      10(-4) cm-1
     1  F(19)              0.00000       0.00000       0.00000       0.00000
     2  C(13)              0.00000       0.00000       0.00000       0.00000
     3  C(13)              0.00000       0.00000       0.00000       0.00000
     4  C(13)              0.00000       0.00000       0.00000       0.00000
     5  C(13)              0.00000       0.00000       0.00000       0.00000
     6  C(13)              0.00000       0.00000       0.00000       0.00000
     7  C(13)              0.00000       0.00000       0.00000       0.00000
     8  H(1)               0.00000       0.00000       0.00000       0.00000
     9  H(1)               0.00000       0.00000       0.00000       0.00000
    10  H(1)               0.00000       0.00000       0.00000       0.00000
    11  H(1)               0.00000       0.00000       0.00000       0.00000
    12  H(1)               0.00000       0.00000       0.00000       0.00000
 --------------------------------------------------------
       Center         ----  Spin Dipole Couplings  ----
                      3XX-RR        3YY-RR        3ZZ-RR
 --------------------------------------------------------
     1   Atom        0.000000      0.000000      0.000000
     2   Atom        0.000000      0.000000      0.000000
     3   Atom        0.000000      0.000000      0.000000
     4   Atom        0.000000      0.000000      0.000000
     5   Atom        0.000000      0.000000      0.000000
     6   Atom        0.000000      0.000000      0.000000
     7   Atom        0.000000      0.000000      0.000000
     8   Atom        0.000000      0.000000      0.000000
     9   Atom        0.000000      0.000000      0.000000
    10   Atom        0.000000      0.000000      0.000000
    11   Atom        0.000000      0.000000      0.000000
    12   Atom        0.000000      0.000000      0.000000
 --------------------------------------------------------
                        XY            XZ            YZ
 --------------------------------------------------------
     1   Atom        0.000000      0.000000      0.000000
     2   Atom        0.000000      0.000000      0.000000
     3   Atom        0.000000      0.000000      0.000000
     4   Atom        0.000000      0.000000      0.000000
     5   Atom        0.000000      0.000000      0.000000
     6   Atom        0.000000      0.000000      0.000000
     7   Atom        0.000000      0.000000      0.000000
     8   Atom        0.000000      0.000000      0.000000
     9   Atom        0.000000      0.000000      0.000000
    10   Atom        0.000000      0.000000      0.000000
    11   Atom        0.000000      0.000000      0.000000
    12   Atom        0.000000      0.000000      0.000000
 --------------------------------------------------------


 ---------------------------------------------------------------------------------
              Anisotropic Spin Dipole Couplings in Principal Axis System
 ---------------------------------------------------------------------------------

       Atom             a.u.   MegaHertz   Gauss  10(-4) cm-1        Axes

              Baa     0.0000     0.000     0.000     0.000  1.0000  0.0000  0.0000
     1 F(19)  Bbb     0.0000     0.000     0.000     0.000 -0.0000  1.0000  0.0000
              Bcc     0.0000     0.000     0.000     0.000  0.0000  0.0000  1.0000
 
              Baa     0.0000     0.000     0.000     0.000  1.0000  0.0000  0.0000
     2 C(13)  Bbb     0.0000     0.000     0.000     0.000 -0.0000  1.0000  0.0000
              Bcc     0.0000     0.000     0.000     0.000  0.0000  0.0000  1.0000
 
              Baa     0.0000     0.000     0.000     0.000  1.0000  0.0000  0.0000
     3 C(13)  Bbb     0.0000     0.000     0.000     0.000 -0.0000  1.0000  0.0000
              Bcc     0.0000     0.000     0.000     0.000  0.0000  0.0000  1.0000
 
              Baa     0.0000     0.000     0.000     0.000  1.0000  0.0000  0.0000
     4 C(13)  Bbb     0.0000     0.000     0.000     0.000 -0.0000  1.0000  0.0000
              Bcc     0.0000     0.000     0.000     0.000  0.0000  0.0000  1.0000
 
              Baa     0.0000     0.000     0.000     0.000  1.0000  0.0000  0.0000
     5 C(13)  Bbb     0.0000     0.000     0.000     0.000 -0.0000  1.0000  0.0000
              Bcc     0.0000     0.000     0.000     0.000  0.0000  0.0000  1.0000
 
              Baa     0.0000     0.000     0.000     0.000  1.0000  0.0000  0.0000
     6 C(13)  Bbb     0.0000     0.000     0.000     0.000 -0.0000  1.0000  0.0000
              Bcc     0.0000     0.000     0.000     0.000  0.0000  0.0000  1.0000
 
              Baa     0.0000     0.000     0.000     0.000  1.0000  0.0000  0.0000
     7 C(13)  Bbb     0.0000     0.000     0.000     0.000 -0.0000  1.0000  0.0000
              Bcc     0.0000     0.000     0.000     0.000  0.0000  0.0000  1.0000
 
              Baa     0.0000     0.000     0.000     0.000  1.0000  0.0000  0.0000
     8 H(1)   Bbb     0.0000     0.000     0.000     0.000 -0.0000  1.0000  0.0000
              Bcc     0.0000     0.000     0.000     0.000  0.0000  0.0000  1.0000
 
              Baa     0.0000     0.000     0.000     0.000  1.0000  0.0000  0.0000
     9 H(1)   Bbb     0.0000     0.000     0.000     0.000 -0.0000  1.0000  0.0000
              Bcc     0.0000     0.000     0.000     0.000  0.0000  0.0000  1.0000
 
              Baa     0.0000     0.000     0.000     0.000  1.0000  0.0000  0.0000
    10 H(1)   Bbb     0.0000     0.000     0.000     0.000 -0.0000  1.0000  0.0000
              Bcc     0.0000     0.000     0.000     0.000  0.0000  0.0000  1.0000
 
              Baa     0.0000     0.000     0.000     0.000  1.0000  0.0000  0.0000
    11 H(1)   Bbb     0.0000     0.000     0.000     0.000 -0.0000  1.0000  0.0000
              Bcc     0.0000     0.000     0.000     0.000  0.0000  0.0000  1.0000
 
              Baa     0.0000     0.000     0.000     0.000  1.0000  0.0000  0.0000
    12 H(1)   Bbb     0.0000     0.000     0.000     0.000 -0.0000  1.0000  0.0000
              Bcc     0.0000     0.000     0.000     0.000  0.0000  0.0000  1.0000
 

 ---------------------------------------------------------------------------------

 1\1\GINC-GAMBA\SP\ROHF\Gen\C6H5F1\IRIKURA\27-Sep-2023\0\\# rohf/gen ge
 om=check guess=check\\fluorobenzene, ROHF/cc-pVTZ-F12\\0,1\F,0,0.,0.,2
 .277442\C,0,0.,0.,0.925178\C,0,0.,1.212656,0.259016\C,0,0.,-1.212656,0
 .259016\C,0,0.,1.2036,-1.131714\C,0,0.,-1.2036,-1.131714\C,0,0.,0.,-1.
 828895\H,0,0.,2.134369,0.822971\H,0,0.,-2.134369,0.822971\H,0,0.,2.142
 011,-1.669173\H,0,0.,-2.142011,-1.669173\H,0,0.,0.,-2.909892\\Version=
 ES64L-G16RevB.01\State=1-A1\HF=-329.6915697\RMSD=4.435e-09\Dipole=0.,0
 .,-0.7096678\Quadrupole=-3.0726573,4.1570259,-1.0843686,0.,0.,0.\PG=C0
 2V [C2(H1C1C1F1),SGV(C4H4)]\\@


 REALITY IS FOR PEOPLE WHO CAN'T FACE SCIENCE FICTION.
 Job cpu time:       0 days  0 hours 17 minutes 49.7 seconds.
 Elapsed time:       0 days  0 hours  4 minutes 27.6 seconds.
 File lengths (MBytes):  RWF=    156 Int=      0 D2E=      0 Chk=     19 Scr=      1
 Normal termination of Gaussian 16 at Wed Sep 27 22:48:13 2023.
