 Entering Gaussian System, Link 0=g16
 AtFile(1): pcseg2.gbs
            -H     0
            S   4   1.00
                  0.754732D+02           0.427821D-02
                  0.113575D+02           0.328672D-01
                  0.260081D+01           0.159578D+00
                  0.735503D+00           0.500000D+00
            S   1   1.00
                  0.231761D+00           1.0000000
            S   1   1.00
                  0.741675D-01           1.0000000
            P   1   1.00
                  0.160000D+01           1.0000000
            P   1   1.00
                  0.450000D+00           1.0000000
            D   1   1.00
                  0.125000D+01           1.0000000
            ****
            -C     0
            S   7   1.00
                  0.731999D+04           0.695369D-03
                  0.109818D+04           0.537138D-02
                  0.250014D+03           0.274734D-01
                  0.707586D+02           0.105078D+00
                  0.228595D+02           0.291262D+00
                  0.803936D+01           0.500000D+00
                  0.289309D+01           0.362224D+00
            S   2   1.00
                  0.521640D+01          -0.957844D-01
                  0.556124D+00           0.500000D+00
            S   1   1.00
                  0.228813D+00           1.0000000
            S   1   1.00
                  0.936338D-01           1.0000000
            P   4   1.00
                  0.339855D+02           0.818395D-02
                  0.772957D+01           0.586921D-01
                  0.224954D+01           0.222514D+00
                  0.767681D+00           0.500000D+00
            P   1   1.00
                  0.263283D+00           1.0000000
            P   1   1.00
                  0.848744D-01           1.0000000
            D   1   1.00
                  0.140000D+01           1.0000000
            D   1   1.00
                  0.450000D+00           1.0000000
            F   1   1.00
                  0.950000D+00           1.0000000
            ****
            -O     0
            S   7   1.00
                  0.135887D+05           0.665492D-03
                  0.203847D+04           0.514222D-02
                  0.464041D+03           0.263472D-01
                  0.131339D+03           0.101500D+00
                  0.425340D+02           0.285877D+00
                  0.150429D+02           0.500000D+00
                  0.546616D+01           0.368211D+00
            S   2   1.00
                  0.100915D+02          -0.100084D+00
                  0.110429D+01           0.500000D+00
            S   1   1.00
                  0.448082D+00           1.0000000
            S   1   1.00
                  0.175325D+00           1.0000000
            P   4   1.00
                  0.608220D+02           0.908253D-02
                  0.140332D+02           0.645878D-01
                  0.418244D+01           0.241502D+00
                  0.142490D+01           0.500000D+00
            P   1   1.00
                  0.478741D+00           1.0000000
            P   1   1.00
                  0.146257D+00           1.0000000
            D   1   1.00
                  0.220000D+01           1.0000000
            D   1   1.00
                  0.650000D+00           1.0000000
            F   1   1.00
                  0.110000D+01           1.0000000
            ****
            -N     0
            S   7   1.00
                  0.101643D+05           0.682757D-03
                  0.152481D+04           0.527488D-02
                  0.347119D+03           0.270037D-01
                  0.982389D+02           0.103673D+00
                  0.317799D+02           0.289575D+00
                  0.112240D+02           0.500000D+00
                  0.406611D+01           0.364621D+00
            S   2   1.00
                  0.747898D+01          -0.975681D-01
                  0.805040D+00           0.500000D+00
            S   1   1.00
                  0.324626D+00           1.0000000
            S   1   1.00
                  0.128132D+00           1.0000000
            P   4   1.00
                  0.482704D+02           0.829547D-02
                  0.110815D+02           0.596223D-01
                  0.326643D+01           0.227889D+00
                  0.111680D+01           0.500000D+00
            P   1   1.00
                  0.382049D+00           1.0000000
            P   1   1.00
                  0.121222D+00           1.0000000
            D   1   1.00
                  0.180000D+01           1.0000000
            D   1   1.00
                  0.550000D+00           1.0000000
            F   1   1.00
                  0.102000D+01           1.0000000
            ****
            -F     0
            S   7   1.00
                  0.174507D+05           0.655972D-03
                  0.261768D+04           0.506944D-02
                  0.595857D+03           0.259899D-01
                  0.168651D+03           0.100353D+00
                  0.546654D+02           0.284095D+00
                  0.193717D+02           0.500000D+00
                  0.706202D+01           0.370721D+00
            S   2   1.00
                  0.131197D+02          -0.101997D+00
                  0.145046D+01           0.500000D+00
            S   1   1.00
                  0.588255D+00           1.0000000
            S   1   1.00
                  0.227960D+00           1.0000000
            P   4   1.00
                  0.779407D+02           0.931135D-02
                  0.180425D+02           0.663964D-01
                  0.542342D+01           0.246386D+00
                  0.184876D+01           0.500000D+00
            P   1   1.00
                  0.617455D+00           1.0000000
            P   1   1.00
                  0.185496D+00           1.0000000
            D   1   1.00
                  0.280000D+01           1.0000000
            D   1   1.00
                  0.800000D+00           1.0000000
            F   1   1.00
                  0.120000D+01           1.0000000
            ****
            -Cl     0
            S   8   1.00
                  0.154272D+06           0.222473D-03
                  0.231232D+05           0.172590D-02
                  0.526257D+04           0.899286D-02
                  0.148995D+04           0.367724D-01
                  0.485417D+03           0.121446D+00
                  0.174634D+03           0.304148D+00
                  0.672393D+02           0.500000D+00
                  0.265780D+02           0.360252D+00
            S   3   1.00
                  0.131826D+03          -0.531330D-01
                  0.400703D+02          -0.233346D+00
                  0.789448D+01           0.500000D+00
            S   2   1.00
                  0.427711D+01           0.500000D+00
                  0.196233D+01           0.370517D+00
            S   1   1.00
                  0.520793D+00           1.0000000
            S   1   1.00
                  0.181633D+00           1.0000000
            P   7   1.00
                  0.124440D+04           0.988206D-03
                  0.295109D+03           0.829674D-02
                  0.947224D+02           0.430906D-01
                  0.352588D+02           0.148443D+00
                  0.144211D+02           0.344744D+00
                  0.610371D+01           0.500000D+00
                  0.258886D+01           0.348278D+00
            P   2   1.00
                  0.109447D+02          -0.196768D-01
                  0.104413D+01           0.500000D+00
            P   1   1.00
                  0.376184D+00           1.0000000
            P   1   1.00
                  0.120613D+00           1.0000000
            D   1   1.00
                  0.231000D+01           1.0000000
            D   1   1.00
                  0.520000D+00           1.0000000
            F   1   1.00
                  0.720000D+00           1.0000000
            ****
            -S     0
            S   8   1.00
                  0.134700D+06           0.226231D-03
                  0.201904D+05           0.175488D-02
                  0.459528D+04           0.914190D-02
                  0.130109D+04           0.373551D-01
                  0.423902D+03           0.123121D+00
                  0.152485D+03           0.306801D+00
                  0.586925D+02           0.500000D+00
                  0.231461D+02           0.354358D+00
            S   3   1.00
                  0.116327D+03          -0.491772D-01
                  0.352841D+02          -0.215962D+00
                  0.677831D+01           0.500000D+00
            S   2   1.00
                  0.360404D+01           0.500000D+00
                  0.164871D+01           0.366278D+00
            S   1   1.00
                  0.421821D+00           1.0000000
            S   1   1.00
                  0.147554D+00           1.0000000
            P   7   1.00
                  0.104863D+04           0.105273D-02
                  0.248717D+03           0.879338D-02
                  0.797887D+02           0.453358D-01
                  0.296023D+02           0.154476D+00
                  0.120627D+02           0.352366D+00
                  0.507628D+01           0.500000D+00
                  0.213375D+01           0.346429D+00
            P   2   1.00
                  0.928958D+01          -0.185932D-01
                  0.837819D+00           0.500000D+00
            P   1   1.00
                  0.301495D+00           1.0000000
            P   1   1.00
                  0.974740D-01           1.0000000
            D   1   1.00
                  0.210000D+01           1.0000000
            D   1   1.00
                  0.480000D+00           1.0000000
            F   1   1.00
                  0.660000D+00           1.0000000
            ****
            -Br     0
            S    10   1.00
                  0.233625D+07           0.532336D-04
                  0.349961D+06           0.413715D-03
                  0.796444D+05           0.217123D-02
                  0.225555D+05           0.910109D-02
                  0.735546D+04           0.323789D-01
                  0.265352D+04           0.988755D-01
                  0.103517D+04           0.248138D+00
                  0.422205D+03           0.474328D+00
                  0.180035D+03           0.500000D+00
                  0.793308D+02           0.187769D+00
            S    4   1.00
                  0.620834D+03          -0.226511D-01
                  0.190829D+03          -0.109497D+00
                  0.312505D+02           0.500000D+00
                  0.135270D+02           0.492812D+00
            S    2   1.00
                  0.216097D+02          -0.165418D+00
                  0.372566D+01           0.500000D+00
            S    1   1.00
                  0.169770D+01           1.0000000
            S    1   1.00
                  0.489332D+00           1.0000000
            S    1   1.00
                  0.175712D+00           1.0000000
            P    8   1.00
                  0.960829D+04           0.478974D-03
                  0.227618D+04           0.417853D-02
                  0.736723D+03           0.229315D-01
                  0.281579D+03           0.892653D-01
                  0.118395D+03           0.255288D+00
                  0.527481D+02           0.479074D+00
                  0.245098D+02           0.500000D+00
                  0.112009D+02           0.200944D+00
            P    4   1.00
                  0.587849D+02          -0.189674D-01
                  0.918962D+01           0.264104D+00
                  0.413895D+01           0.500000D+00
                  0.184225D+01           0.319316D+00
            P    1   1.00
                  0.713862D+00           1.0000000
            P    1   1.00
                  0.274232D+00           1.0000000
            P    1   1.00
                  0.944411D-01           1.0000000
            D    7   1.00
                  0.398470D+03           0.204066D-02
                  0.118967D+03           0.175171D-01
                  0.450197D+02           0.829708D-01
                  0.190320D+02           0.236284D+00
                  0.855686D+01           0.428468D+00
                  0.382950D+01           0.500000D+00
                  0.166291D+01           0.349360D+00
            D    1   1.00
                  0.672953D+00           1.0000000
            D    1   1.00
                  0.252000D+00           1.0000000
            F    1   1.00
                  0.530000D+00           1.0000000
            ****
            -Si     0
            S    8   1.00
                  0.996133D+05           0.235546D-03
                  0.149311D+05           0.182707D-02
                  0.339820D+04           0.951425D-02
                  0.962140D+03           0.388172D-01
                  0.313430D+03           0.127328D+00
                  0.112683D+03           0.313522D+00
                  0.433372D+02           0.500000D+00
                  0.170029D+02           0.340347D+00
            S    3   1.00
                  0.884208D+02          -0.404451D-01
                  0.266756D+02          -0.178059D+00
                  0.479640D+01           0.500000D+00
            S    2   1.00
                  0.239385D+01           0.500000D+00
                  0.108333D+01           0.338016D+00
            S    1   1.00
                  0.252420D+00           1.0000000
            S    1   1.00
                  0.891210D-01           1.0000000
            P    7   1.00
                  0.709901D+03           0.123028D-02
                  0.168426D+03           0.101366D-01
                  0.539946D+02           0.511840D-01
                  0.198646D+02           0.169967D+00
                  0.801369D+01           0.370717D+00
                  0.331870D+01           0.500000D+00
                  0.136112D+01           0.344128D+00
            P    2   1.00
                  0.622158D+01          -0.166609D-01
                  0.503049D+00           0.500000D+00
            P    1   1.00
                  0.179848D+00           1.0000000
            P    1   1.00
                  0.591912D-01           1.0000000
            D    1   1.00
                  0.168000D+01           1.0000000
            D    1   1.00
                  0.380000D+00           1.0000000
            F    1   1.00
                  0.540000D+00           1.0000000
            ****
            -P     0
            S    8   1.00
                  0.116416D+06           0.230715D-03
                  0.174500D+05           0.178960D-02
                  0.397149D+04           0.932116D-02
                  0.112447D+04           0.380591D-01
                  0.366347D+03           0.125148D+00
                  0.131757D+03           0.310022D+00
                  0.506988D+02           0.500000D+00
                  0.199436D+02           0.347528D+00
            S    3   1.00
                  0.101878D+03          -0.446755D-01
                  0.308249D+02          -0.196376D+00
                  0.573688D+01           0.500000D+00
            S    2   1.00
                  0.296868D+01           0.500000D+00
                  0.135315D+01           0.355098D+00
            S    1   1.00
                  0.332196D+00           1.0000000
            S    1   1.00
                  0.116229D+00           1.0000000
            P    7   1.00
                  0.873928D+03           0.112375D-02
                  0.207298D+03           0.933330D-02
                  0.664628D+02           0.477213D-01
                  0.245665D+02           0.160733D+00
                  0.996820D+01           0.359760D+00
                  0.416536D+01           0.500000D+00
                  0.173022D+01           0.346593D+00
            P    2   1.00
                  0.772530D+01          -0.175718D-01
                  0.657252D+00           0.500000D+00
            P    1   1.00
                  0.239903D+00           1.0000000
            P    1   1.00
                  0.800988D-01           1.0000000
            D    1   1.00
                  0.189000D+01           1.0000000
            D    1   1.00
                  0.430000D+00           1.0000000
            F    1   1.00
                  0.600000D+00           1.0000000
            ****
            
 Initial command:
 /usr/local/apps/g16_b01_avx/g16/l1.exe "/wrk/irikura/Gau-17480.inp" -scrdir="/wrk/irikura/"
 Entering Link 1 = /usr/local/apps/g16_b01_avx/g16/l1.exe PID=     17482.
  
 Copyright (c) 1988-2017, Gaussian, Inc.  All Rights Reserved.
  
 This is part of the Gaussian(R) 16 program.  It is based on
 the Gaussian(R) 09 system (copyright 2009, Gaussian, Inc.),
 the Gaussian(R) 03 system (copyright 2003, Gaussian, Inc.),
 the Gaussian(R) 98 system (copyright 1998, Gaussian, Inc.),
 the Gaussian(R) 94 system (copyright 1995, Gaussian, Inc.),
 the Gaussian 92(TM) system (copyright 1992, Gaussian, Inc.),
 the Gaussian 90(TM) system (copyright 1990, Gaussian, Inc.),
 the Gaussian 88(TM) system (copyright 1988, Gaussian, Inc.),
 the Gaussian 86(TM) system (copyright 1986, Carnegie Mellon
 University), and the Gaussian 82(TM) system (copyright 1983,
 Carnegie Mellon University). Gaussian is a federally registered
 trademark of Gaussian, Inc.
  
 This software contains proprietary and confidential information,
 including trade secrets, belonging to Gaussian, Inc.
  
 This software is provided under written license and may be
 used, copied, transmitted, or stored only in accord with that
 written license.
  
 The following legend is applicable only to US Government
 contracts under FAR:
  
                    RESTRICTED RIGHTS LEGEND
  
 Use, reproduction and disclosure by the US Government is
 subject to restrictions as set forth in subparagraphs (a)
 and (c) of the Commercial Computer Software - Restricted
 Rights clause in FAR 52.227-19.
  
 Gaussian, Inc.
 340 Quinnipiac St., Bldg. 40, Wallingford CT 06492
  
  
 ---------------------------------------------------------------
 Warning -- This program may not be used in any manner that
 competes with the business of Gaussian, Inc. or will provide
 assistance to any competitor of Gaussian, Inc.  The licensee
 of this program is prohibited from giving any competitor of
 Gaussian, Inc. access to this program.  By using this program,
 the user acknowledges that Gaussian, Inc. is engaged in the
 business of creating and licensing software in the field of
 computational chemistry and represents and warrants to the
 licensee that it is not a competitor of Gaussian, Inc. and that
 it will not use this program in any manner prohibited above.
 ---------------------------------------------------------------
  

 Cite this work as:
 Gaussian 16, Revision B.01,
 M. J. Frisch, G. W. Trucks, H. B. Schlegel, G. E. Scuseria, 
 M. A. Robb, J. R. Cheeseman, G. Scalmani, V. Barone, 
 G. A. Petersson, H. Nakatsuji, X. Li, M. Caricato, A. V. Marenich, 
 J. Bloino, B. G. Janesko, R. Gomperts, B. Mennucci, H. P. Hratchian, 
 J. V. Ortiz, A. F. Izmaylov, J. L. Sonnenberg, D. Williams-Young, 
 F. Ding, F. Lipparini, F. Egidi, J. Goings, B. Peng, A. Petrone, 
 T. Henderson, D. Ranasinghe, V. G. Zakrzewski, J. Gao, N. Rega, 
 G. Zheng, W. Liang, M. Hada, M. Ehara, K. Toyota, R. Fukuda, 
 J. Hasegawa, M. Ishida, T. Nakajima, Y. Honda, O. Kitao, H. Nakai, 
 T. Vreven, K. Throssell, J. A. Montgomery, Jr., J. E. Peralta, 
 F. Ogliaro, M. J. Bearpark, J. J. Heyd, E. N. Brothers, K. N. Kudin, 
 V. N. Staroverov, T. A. Keith, R. Kobayashi, J. Normand, 
 K. Raghavachari, A. P. Rendell, J. C. Burant, S. S. Iyengar, 
 J. Tomasi, M. Cossi, J. M. Millam, M. Klene, C. Adamo, R. Cammi, 
 J. W. Ochterski, R. L. Martin, K. Morokuma, O. Farkas, 
 J. B. Foresman, and D. J. Fox, Gaussian, Inc., Wallingford CT, 2016.
 
 ******************************************
 Gaussian 16:  ES64L-G16RevB.01 20-Dec-2017
                15-Jun-2022 
 ******************************************
 %mem=1000mw
 %nprocs=12
 Will use up to   12 processors via shared memory.
 --------------------
 # b3lyp/gen opt freq
 --------------------
 1/18=20,19=15,26=3,38=1/1,3;
 2/9=110,12=2,17=6,18=5,40=1/2;
 3/5=7,11=2,25=1,30=1,71=1,74=-5/1,2,3;
 4//1;
 5/5=2,38=5/2;
 6/7=2,8=2,9=2,10=2,28=1/1;
 7//1,2,3,16;
 1/18=20,19=15,26=3/3(2);
 2/9=110/2;
 99//99;
 2/9=110/2;
 3/5=7,6=1,11=2,25=1,30=1,71=1,74=-5,82=7/1,2,3;
 4/5=5,16=3,69=1/1;
 5/5=2,38=5/2;
 7//1,2,3,16;
 1/18=20,19=15,26=3/3(-5);
 2/9=110/2;
 6/7=2,8=2,9=2,10=2,19=2,28=1/1;
 99/9=1/99;
 ----------------------------
 fluorobenzene, B3LYP/pcseg-2
 ----------------------------
 Symbolic Z-matrix:
 Charge =  0 Multiplicity = 1
 F                     0.        0.        2.27202 
 C                     0.        0.        0.93361 
 C                     0.        1.21401   0.26061 
 C                     0.       -1.21401   0.26061 
 C                     0.        1.20548  -1.13227 
 C                     0.       -1.20548  -1.13227 
 C                     0.        0.       -1.83139 
 H                     0.        2.13735   0.82772 
 H                     0.       -2.13735   0.82772 
 H                     0.        2.1472   -1.67075 
 H                     0.       -2.1472   -1.67075 
 H                     0.        0.       -2.91561 
 

 GradGradGradGradGradGradGradGradGradGradGradGradGradGradGradGradGradGrad
 Berny optimization.
 Initialization pass.
                           ----------------------------
                           !    Initial Parameters    !
                           ! (Angstroms and Degrees)  !
 --------------------------                            --------------------------
 ! Name  Definition              Value          Derivative Info.                !
 --------------------------------------------------------------------------------
 ! R1    R(1,2)                  1.3384         estimate D2E/DX2                !
 ! R2    R(2,3)                  1.3881         estimate D2E/DX2                !
 ! R3    R(2,4)                  1.3881         estimate D2E/DX2                !
 ! R4    R(3,5)                  1.3929         estimate D2E/DX2                !
 ! R5    R(3,8)                  1.0836         estimate D2E/DX2                !
 ! R6    R(4,6)                  1.3929         estimate D2E/DX2                !
 ! R7    R(4,9)                  1.0836         estimate D2E/DX2                !
 ! R8    R(5,7)                  1.3935         estimate D2E/DX2                !
 ! R9    R(5,10)                 1.0848         estimate D2E/DX2                !
 ! R10   R(6,7)                  1.3935         estimate D2E/DX2                !
 ! R11   R(6,11)                 1.0848         estimate D2E/DX2                !
 ! R12   R(7,12)                 1.0842         estimate D2E/DX2                !
 ! A1    A(1,2,3)              119.0021         estimate D2E/DX2                !
 ! A2    A(1,2,4)              119.0021         estimate D2E/DX2                !
 ! A3    A(3,2,4)              121.9958         estimate D2E/DX2                !
 ! A4    A(2,3,5)              118.6513         estimate D2E/DX2                !
 ! A5    A(2,3,8)              119.4398         estimate D2E/DX2                !
 ! A6    A(5,3,8)              121.9089         estimate D2E/DX2                !
 ! A7    A(2,4,6)              118.6513         estimate D2E/DX2                !
 ! A8    A(2,4,9)              119.4398         estimate D2E/DX2                !
 ! A9    A(6,4,9)              121.9089         estimate D2E/DX2                !
 ! A10   A(3,5,7)              120.4625         estimate D2E/DX2                !
 ! A11   A(3,5,10)             119.4105         estimate D2E/DX2                !
 ! A12   A(7,5,10)             120.127          estimate D2E/DX2                !
 ! A13   A(4,6,7)              120.4625         estimate D2E/DX2                !
 ! A14   A(4,6,11)             119.4105         estimate D2E/DX2                !
 ! A15   A(7,6,11)             120.127          estimate D2E/DX2                !
 ! A16   A(5,7,6)              119.7767         estimate D2E/DX2                !
 ! A17   A(5,7,12)             120.1116         estimate D2E/DX2                !
 ! A18   A(6,7,12)             120.1116         estimate D2E/DX2                !
 ! D1    D(1,2,3,5)            180.0            estimate D2E/DX2                !
 ! D2    D(1,2,3,8)              0.0            estimate D2E/DX2                !
 ! D3    D(4,2,3,5)              0.0            estimate D2E/DX2                !
 ! D4    D(4,2,3,8)            180.0            estimate D2E/DX2                !
 ! D5    D(1,2,4,6)            180.0            estimate D2E/DX2                !
 ! D6    D(1,2,4,9)              0.0            estimate D2E/DX2                !
 ! D7    D(3,2,4,6)              0.0            estimate D2E/DX2                !
 ! D8    D(3,2,4,9)            180.0            estimate D2E/DX2                !
 ! D9    D(2,3,5,7)              0.0            estimate D2E/DX2                !
 ! D10   D(2,3,5,10)           180.0            estimate D2E/DX2                !
 ! D11   D(8,3,5,7)            180.0            estimate D2E/DX2                !
 ! D12   D(8,3,5,10)             0.0            estimate D2E/DX2                !
 ! D13   D(2,4,6,7)              0.0            estimate D2E/DX2                !
 ! D14   D(2,4,6,11)           180.0            estimate D2E/DX2                !
 ! D15   D(9,4,6,7)            180.0            estimate D2E/DX2                !
 ! D16   D(9,4,6,11)             0.0            estimate D2E/DX2                !
 ! D17   D(3,5,7,6)              0.0            estimate D2E/DX2                !
 ! D18   D(3,5,7,12)           180.0            estimate D2E/DX2                !
 ! D19   D(10,5,7,6)           180.0            estimate D2E/DX2                !
 ! D20   D(10,5,7,12)            0.0            estimate D2E/DX2                !
 ! D21   D(4,6,7,5)              0.0            estimate D2E/DX2                !
 ! D22   D(4,6,7,12)           180.0            estimate D2E/DX2                !
 ! D23   D(11,6,7,5)           180.0            estimate D2E/DX2                !
 ! D24   D(11,6,7,12)            0.0            estimate D2E/DX2                !
 --------------------------------------------------------------------------------
 Trust Radius=3.00D-01 FncErr=1.00D-07 GrdErr=1.00D-06 EigMax=2.50D+02 EigMin=1.00D-04
 Number of steps in this run=     64 maximum allowed number of steps=    100.
 GradGradGradGradGradGradGradGradGradGradGradGradGradGradGradGradGradGrad

                          Input orientation:                          
 ---------------------------------------------------------------------
 Center     Atomic      Atomic             Coordinates (Angstroms)
 Number     Number       Type             X           Y           Z
 ---------------------------------------------------------------------
      1          9           0        0.000000    0.000000    2.272023
      2          6           0        0.000000    0.000000    0.933606
      3          6           0        0.000000    1.214010    0.260611
      4          6           0        0.000000   -1.214010    0.260611
      5          6           0        0.000000    1.205481   -1.132266
      6          6           0        0.000000   -1.205481   -1.132266
      7          6           0        0.000000    0.000000   -1.831386
      8          1           0        0.000000    2.137349    0.827722
      9          1           0        0.000000   -2.137349    0.827722
     10          1           0        0.000000    2.147202   -1.670752
     11          1           0        0.000000   -2.147202   -1.670752
     12          1           0        0.000000    0.000000   -2.915610
 ---------------------------------------------------------------------
                    Distance matrix (angstroms):
                    1          2          3          4          5
     1  F    0.000000
     2  C    1.338417   0.000000
     3  C    2.349383   1.388072   0.000000
     4  C    2.349383   1.388072   2.428020   0.000000
     5  C    3.611422   2.391864   1.392903   2.791781   0.000000
     6  C    3.611422   2.391864   2.791781   1.392903   2.410962
     7  C    4.103409   2.764992   2.418733   2.418733   1.393540
     8  H    2.579586   2.139970   1.083591   3.399003   2.170238
     9  H    2.579586   2.139970   3.399003   1.083591   3.875057
    10  H    4.489538   3.375375   2.144997   3.876585   1.084807
    11  H    4.489538   3.375375   3.876585   2.144997   3.395652
    12  H    5.187633   3.849216   3.400324   3.400324   2.152557
                    6          7          8          9         10
     6  C    0.000000
     7  C    1.393540   0.000000
     8  H    3.875057   3.411615   0.000000
     9  H    2.170238   3.411615   4.274698   0.000000
    10  H    3.395652   2.153202   2.498493   4.959813   0.000000
    11  H    1.084807   2.153202   4.959813   2.498493   4.294404
    12  H    2.152557   1.084224   4.310545   4.310545   2.481965
                   11         12
    11  H    0.000000
    12  H    2.481965   0.000000
 Stoichiometry    C6H5F
 Framework group  C2V[C2(HCCF),SGV(C4H4)]
 Deg. of freedom    11
 Full point group                 C2V     NOp   4
 Largest Abelian subgroup         C2V     NOp   4
 Largest concise Abelian subgroup C2      NOp   2
                         Standard orientation:                         
 ---------------------------------------------------------------------
 Center     Atomic      Atomic             Coordinates (Angstroms)
 Number     Number       Type             X           Y           Z
 ---------------------------------------------------------------------
      1          9           0        0.000000   -0.000000    2.272023
      2          6           0        0.000000   -0.000000    0.933606
      3          6           0        0.000000    1.214010    0.260611
      4          6           0       -0.000000   -1.214010    0.260611
      5          6           0        0.000000    1.205481   -1.132266
      6          6           0       -0.000000   -1.205481   -1.132266
      7          6           0        0.000000    0.000000   -1.831386
      8          1           0        0.000000    2.137349    0.827722
      9          1           0       -0.000000   -2.137349    0.827722
     10          1           0        0.000000    2.147202   -1.670752
     11          1           0       -0.000000   -2.147202   -1.670752
     12          1           0        0.000000    0.000000   -2.915610
 ---------------------------------------------------------------------
 Rotational constants (GHZ):           5.6944604           2.5749735           1.7731667
 General basis read from cards:  (5D, 7F)
 There are   126 symmetry adapted cartesian basis functions of A1  symmetry.
 There are    40 symmetry adapted cartesian basis functions of A2  symmetry.
 There are    57 symmetry adapted cartesian basis functions of B1  symmetry.
 There are    97 symmetry adapted cartesian basis functions of B2  symmetry.
 There are   106 symmetry adapted basis functions of A1  symmetry.
 There are    38 symmetry adapted basis functions of A2  symmetry.
 There are    52 symmetry adapted basis functions of B1  symmetry.
 There are    84 symmetry adapted basis functions of B2  symmetry.
   280 basis functions,   447 primitive gaussians,   320 cartesian basis functions
    25 alpha electrons       25 beta electrons
       nuclear repulsion energy       269.7087516693 Hartrees.
 NAtoms=   12 NActive=   12 NUniq=    8 SFac= 2.25D+00 NAtFMM=   60 NAOKFM=F Big=F
 Integral buffers will be    131072 words long.
 Raffenetti 2 integral format.
 Two-electron integral symmetry is turned on.
 One-electron integrals computed using PRISM.
 NBasis=   280 RedAO= T EigKep=  2.63D-05  NBF=   106    38    52    84
 NBsUse=   280 1.00D-06 EigRej= -1.00D+00 NBFU=   106    38    52    84
 ExpMin= 7.42D-02 ExpMax= 1.75D+04 ExpMxC= 5.96D+02 IAcc=3 IRadAn=         5 AccDes= 0.00D+00
 Harris functional with IExCor=  402 and IRadAn=       5 diagonalized for initial guess.
 HarFok:  IExCor=  402 AccDes= 0.00D+00 IRadAn=         5 IDoV= 1 UseB2=F ITyADJ=14
 ICtDFT=  3500011 ScaDFX=  1.000000  1.000000  1.000000  1.000000
 FoFCou: FMM=F IPFlag=           0 FMFlag=      100000 FMFlg1=           0
         NFxFlg=           0 DoJE=T BraDBF=F KetDBF=T FulRan=T
         wScrn=  0.000000 ICntrl=       500 IOpCl=  0 I1Cent=   200000004 NGrid=           0
         NMat0=    1 NMatS0=      1 NMatT0=    0 NMatD0=    1 NMtDS0=    0 NMtDT0=    0
 Petite list used in FoFCou.
 Initial guess orbital symmetries:
       Occupied  (A1) (A1) (B2) (A1) (B2) (A1) (A1) (A1) (A1) (B2)
                 (A1) (B2) (A1) (A1) (B2) (A1) (A1) (B2) (B1) (A1)
                 (B2) (B1) (B2) (A2) (B1)
       Virtual   (A2) (B1) (A1) (B2) (B1) (A1) (A1) (B2) (A1) (A1)
                 (A1) (B1) (B2) (B2) (A2) (A1) (B1) (A1) (B2) (A1)
                 (A1) (B2) (A2) (B1) (B2) (A1) (A1) (B2) (B2) (A1)
                 (B1) (A1) (A1) (B2) (B2) (B2) (A1) (A1) (B1) (B2)
                 (A1) (B2) (A1) (B1) (B2) (A1) (A1) (A2) (A2) (B2)
                 (B1) (A1) (B2) (A2) (B1) (A1) (B2) (A1) (A1) (A1)
                 (B1) (B2) (A1) (A2) (B1) (B2) (A1) (B2) (B1) (A1)
                 (B1) (B2) (A2) (B1) (A2) (A1) (B2) (B1) (A1) (B2)
                 (B2) (A2) (A1) (B1) (A2) (B2) (B1) (A1) (A1) (B1)
                 (A2) (B2) (A1) (A1) (B2) (A1) (A1) (A2) (B2) (A1)
                 (A1) (B2) (B2) (A1) (B2) (B1) (A1) (A2) (B2) (A1)
                 (A1) (B2) (B2) (A1) (B1) (B2) (A1) (A1) (B2) (A1)
                 (B2) (A1) (B2) (A2) (B1) (B1) (B2) (A2) (B1) (A1)
                 (A2) (B1) (B2) (B1) (A1) (A2) (A1) (B2) (B1) (B2)
                 (A1) (B2) (A1) (A1) (A2) (B2) (A1) (B1) (A1) (A1)
                 (B2) (B2) (A1) (B1) (A2) (B1) (B2) (A2) (A1) (B1)
                 (A1) (A1) (A2) (B2) (B1) (B2) (A2) (A1) (B1) (B2)
                 (A1) (B2) (A2) (A1) (A2) (B1) (A1) (B2) (A2) (A1)
                 (B1) (B1) (A2) (B2) (B1) (A1) (B2) (B1) (A2) (A1)
                 (B1) (A2) (B1) (B2) (A2) (B2) (A1) (A2) (B1) (B2)
                 (A2) (A1) (B1) (B1) (A1) (A1) (B2) (B2) (A2) (A1)
                 (B2) (B1) (B2) (A1) (B2) (B2) (A1) (B1) (A1) (B1)
                 (A2) (B2) (A1) (A2) (A1) (A1) (B2) (B2) (B1) (A1)
                 (A2) (B2) (A1) (A1) (B2) (B2) (B1) (A1) (B2) (A1)
                 (B2) (A1) (A1) (A1) (B2) (A1) (B2) (A1) (B2) (A2)
                 (A1) (B1) (A1) (B2) (A1)
 The electronic state of the initial guess is 1-A1.
 Keep R1 ints in memory in symmetry-blocked form, NReq=970784843.
 Requested convergence on RMS density matrix=1.00D-08 within 128 cycles.
 Requested convergence on MAX density matrix=1.00D-06.
 Requested convergence on             energy=1.00D-06.
 No special actions if energy rises.
 Integral accuracy reduced to 1.0D-05 until final iterations.
 Initial convergence to 1.0D-05 achieved.  Increase integral accuracy.
 SCF Done:  E(RB3LYP) =  -331.619791652     A.U. after   12 cycles
            NFock= 12  Conv=0.99D-08     -V/T= 2.0035

 **********************************************************************

            Population analysis using the SCF Density.

 **********************************************************************

 Orbital symmetries:
       Occupied  (A1) (A1) (A1) (B2) (B2) (A1) (A1) (A1) (A1) (B2)
                 (A1) (B2) (A1) (A1) (A1) (B2) (B1) (A1) (B2) (B2)
                 (A1) (B1) (B2) (A2) (B1)
       Virtual   (A2) (B1) (A1) (B2) (A1) (A1) (B2) (A1) (B1) (A1)
                 (B1) (A1) (B2) (A2) (B2) (B1) (A1) (B2) (A1) (A2)
                 (B1) (A1) (A1) (A1) (B2) (B2) (A1) (B2) (B1) (B2)
                 (A1) (A1) (B2) (A1) (B2) (B2) (A1) (A1) (B1) (A1)
                 (B2) (B2) (B2) (A1) (B1) (A1) (A1) (B2) (A2) (A2)
                 (B1) (A2) (B2) (A1) (A1) (B1) (A1) (B2) (A1) (A1)
                 (B1) (A1) (B2) (A1) (B2) (B1) (A2) (B2) (B1) (A1)
                 (B2) (A2) (B1) (B1) (A1) (A2) (B2) (A1) (B2) (B1)
                 (B2) (A2) (A1) (B1) (A2) (B2) (A1) (B1) (A1) (B1)
                 (B2) (A2) (A1) (A1) (B2) (A1) (A1) (A2) (B2) (A1)
                 (A1) (B2) (B2) (B2) (A1) (B1) (A1) (A2) (B2) (A1)
                 (A1) (B2) (B2) (A1) (B1) (B2) (A1) (A1) (B2) (A1)
                 (B2) (A1) (B2) (B1) (A2) (B1) (B2) (A2) (B1) (A1)
                 (A2) (B1) (B2) (B1) (A1) (A1) (A2) (B2) (B1) (B2)
                 (A1) (B2) (A1) (A2) (A1) (B2) (A1) (B1) (A1) (A1)
                 (B2) (B2) (A1) (A2) (B1) (B1) (A2) (B2) (A1) (B1)
                 (A1) (A2) (A1) (B1) (B2) (B2) (A2) (A1) (A1) (B2)
                 (B1) (B2) (A1) (A2) (A2) (B2) (A1) (B1) (A2) (B1)
                 (A1) (B1) (A2) (B2) (B1) (A1) (B2) (A2) (A1) (B1)
                 (B1) (A2) (B1) (B2) (A2) (B2) (A1) (A2) (B1) (B2)
                 (A2) (A1) (B1) (B1) (A1) (B2) (A2) (A1) (B2) (A1)
                 (B2) (B1) (B2) (A1) (B2) (B2) (A1) (B1) (A1) (B1)
                 (A2) (A1) (B2) (A2) (A1) (B2) (A1) (B2) (B1) (A1)
                 (A2) (B2) (A1) (B2) (A1) (B2) (B1) (A1) (B2) (A1)
                 (B2) (A1) (A1) (A1) (B2) (A1) (B2) (A1) (B2) (A2)
                 (A1) (B1) (A1) (B2) (A1)
 The electronic state is 1-A1.
 Alpha  occ. eigenvalues --  -24.69277 -10.26519 -10.19066 -10.19064 -10.18728
 Alpha  occ. eigenvalues --  -10.18727 -10.18364  -1.23563  -0.87069  -0.76544
 Alpha  occ. eigenvalues --   -0.75646  -0.63249  -0.62206  -0.55632  -0.50635
 Alpha  occ. eigenvalues --   -0.49891  -0.47923  -0.45545  -0.44084  -0.41039
 Alpha  occ. eigenvalues --   -0.38185  -0.37355  -0.35612  -0.27269  -0.25791
 Alpha virt. eigenvalues --   -0.02887  -0.01625   0.01461   0.03639   0.04638
 Alpha virt. eigenvalues --    0.06709   0.06984   0.10005   0.12805   0.15292
 Alpha virt. eigenvalues --    0.16070   0.16981   0.17219   0.19330   0.19675
 Alpha virt. eigenvalues --    0.20337   0.22603   0.22943   0.24799   0.26906
 Alpha virt. eigenvalues --    0.27067   0.28577   0.29293   0.29545   0.29897
 Alpha virt. eigenvalues --    0.31722   0.32089   0.32467   0.33974   0.35814
 Alpha virt. eigenvalues --    0.37084   0.38383   0.43269   0.43482   0.44104
 Alpha virt. eigenvalues --    0.44755   0.44784   0.47739   0.51700   0.58207
 Alpha virt. eigenvalues --    0.58958   0.61939   0.64260   0.66263   0.66491
 Alpha virt. eigenvalues --    0.67965   0.70715   0.73514   0.75281   0.78230
 Alpha virt. eigenvalues --    0.79573   0.83300   0.84071   0.84727   0.93049
 Alpha virt. eigenvalues --    0.93486   0.97094   0.97360   0.98605   1.01641
 Alpha virt. eigenvalues --    1.04602   1.07219   1.07926   1.10279   1.10656
 Alpha virt. eigenvalues --    1.12298   1.12324   1.14442   1.17041   1.18652
 Alpha virt. eigenvalues --    1.21615   1.22977   1.23963   1.27680   1.27850
 Alpha virt. eigenvalues --    1.28528   1.30877   1.37651   1.37873   1.38649
 Alpha virt. eigenvalues --    1.42689   1.43894   1.44940   1.51999   1.52548
 Alpha virt. eigenvalues --    1.54733   1.56638   1.56740   1.58482   1.60104
 Alpha virt. eigenvalues --    1.62088   1.62622   1.67876   1.69854   1.74768
 Alpha virt. eigenvalues --    1.77778   1.80191   1.81962   1.83852   1.85111
 Alpha virt. eigenvalues --    1.86288   1.91964   1.93050   1.95827   1.97644
 Alpha virt. eigenvalues --    1.98075   2.03753   2.05974   2.10550   2.16263
 Alpha virt. eigenvalues --    2.17656   2.19320   2.22406   2.27225   2.28880
 Alpha virt. eigenvalues --    2.35525   2.36622   2.46777   2.51362   2.63741
 Alpha virt. eigenvalues --    2.68307   2.71693   2.73620   2.82370   2.83337
 Alpha virt. eigenvalues --    2.98526   3.11197   3.14221   3.14811   3.18300
 Alpha virt. eigenvalues --    3.21451   3.23446   3.26556   3.29456   3.31619
 Alpha virt. eigenvalues --    3.33597   3.35016   3.39029   3.43732   3.44473
 Alpha virt. eigenvalues --    3.49131   3.54725   3.56862   3.62590   3.62937
 Alpha virt. eigenvalues --    3.63281   3.68586   3.70548   3.77532   3.81345
 Alpha virt. eigenvalues --    3.82797   3.86183   3.91438   3.93520   3.94406
 Alpha virt. eigenvalues --    3.97925   3.98208   3.98982   4.00194   4.01279
 Alpha virt. eigenvalues --    4.03452   4.04462   4.06378   4.11229   4.12537
 Alpha virt. eigenvalues --    4.14979   4.17292   4.17875   4.20113   4.20453
 Alpha virt. eigenvalues --    4.21453   4.23608   4.24071   4.26533   4.29002
 Alpha virt. eigenvalues --    4.29143   4.29175   4.29853   4.33732   4.34024
 Alpha virt. eigenvalues --    4.34776   4.35805   4.37587   4.37607   4.42429
 Alpha virt. eigenvalues --    4.42603   4.44081   4.45162   4.46292   4.46764
 Alpha virt. eigenvalues --    4.49924   4.50281   4.51282   4.55972   4.59004
 Alpha virt. eigenvalues --    4.61870   4.66510   4.68728   4.69174   4.70694
 Alpha virt. eigenvalues --    4.74603   4.74613   4.76980   4.85816   4.89280
 Alpha virt. eigenvalues --    4.92437   4.92752   4.93329   4.95738   4.96838
 Alpha virt. eigenvalues --    5.01626   5.03074   5.08228   5.11063   5.14293
 Alpha virt. eigenvalues --    5.17545   5.19494   5.21197   5.24726   5.29843
 Alpha virt. eigenvalues --    5.30742   5.33559   5.34592   5.39598   5.39824
 Alpha virt. eigenvalues --    5.46626   5.47864   5.50171   5.52086   5.53673
 Alpha virt. eigenvalues --    5.54964   5.61275   5.66321   5.69406   5.70286
 Alpha virt. eigenvalues --    5.71577   5.85399   5.91443   5.98218   6.00012
 Alpha virt. eigenvalues --    6.02294   6.04811   6.28650   6.40592   6.43539
 Alpha virt. eigenvalues --    6.46714   6.58735   6.84857   7.14883   7.56289
 Alpha virt. eigenvalues --    7.61159   7.99527   8.19445   8.23122  11.12556
          Condensed to atoms (all electrons):
               1          2          3          4          5          6
     1  F    9.175400   0.163947  -0.039365  -0.039365   0.014374   0.014374
     2  C    0.163947   4.536520   0.544756   0.544756  -0.034427  -0.034427
     3  C   -0.039365   0.544756   4.942720  -0.023088   0.393391  -0.078634
     4  C   -0.039365   0.544756  -0.023088   4.942720  -0.078634   0.393391
     5  C    0.014374  -0.034427   0.393391  -0.078634   4.904973  -0.023452
     6  C    0.014374  -0.034427  -0.078634   0.393391  -0.023452   4.904973
     7  C   -0.000170  -0.046705  -0.051582  -0.051582   0.469859   0.469859
     8  H    0.000597  -0.046418   0.451048   0.012102  -0.047941  -0.005219
     9  H    0.000597  -0.046418   0.012102   0.451048  -0.005219  -0.047941
    10  H   -0.000111   0.007939  -0.046514  -0.004857   0.452140   0.014415
    11  H   -0.000111   0.007939  -0.004857  -0.046514   0.014415   0.452140
    12  H    0.000018  -0.002817   0.012881   0.012881  -0.051737  -0.051737
               7          8          9         10         11         12
     1  F   -0.000170   0.000597   0.000597  -0.000111  -0.000111   0.000018
     2  C   -0.046705  -0.046418  -0.046418   0.007939   0.007939  -0.002817
     3  C   -0.051582   0.451048   0.012102  -0.046514  -0.004857   0.012881
     4  C   -0.051582   0.012102   0.451048  -0.004857  -0.046514   0.012881
     5  C    0.469859  -0.047941  -0.005219   0.452140   0.014415  -0.051737
     6  C    0.469859  -0.005219  -0.047941   0.014415   0.452140  -0.051737
     7  C    4.863437   0.012697   0.012697  -0.049758  -0.049758   0.453916
     8  H    0.012697   0.596715  -0.000239  -0.009952   0.000098  -0.000076
     9  H    0.012697  -0.000239   0.596715   0.000098  -0.009952  -0.000076
    10  H   -0.049758  -0.009952   0.000098   0.616403  -0.000198  -0.009568
    11  H   -0.049758   0.000098  -0.009952  -0.000198   0.616403  -0.009568
    12  H    0.453916  -0.000076  -0.000076  -0.009568  -0.009568   0.620041
 Mulliken charges:
               1
     1  F   -0.290185
     2  C    0.405354
     3  C   -0.112857
     4  C   -0.112857
     5  C   -0.007744
     6  C   -0.007744
     7  C   -0.032909
     8  H    0.036587
     9  H    0.036587
    10  H    0.029964
    11  H    0.029964
    12  H    0.025840
 Sum of Mulliken charges =  -0.00000
 Mulliken charges with hydrogens summed into heavy atoms:
               1
     1  F   -0.290185
     2  C    0.405354
     3  C   -0.076270
     4  C   -0.076270
     5  C    0.022220
     6  C    0.022220
     7  C   -0.007068
 Electronic spatial extent (au):  <R**2>=            649.1068
 Charge=             -0.0000 electrons
 Dipole moment (field-independent basis, Debye):
    X=              0.0000    Y=              0.0000    Z=             -1.5047  Tot=              1.5047
 Quadrupole moment (field-independent basis, Debye-Ang):
   XX=            -43.3990   YY=            -34.9266   ZZ=            -40.8963
   XY=              0.0000   XZ=              0.0000   YZ=              0.0000
 Traceless Quadrupole moment (field-independent basis, Debye-Ang):
   XX=             -3.6584   YY=              4.8140   ZZ=             -1.1557
   XY=              0.0000   XZ=              0.0000   YZ=              0.0000
 Octapole moment (field-independent basis, Debye-Ang**2):
  XXX=              0.0000  YYY=             -0.0000  ZZZ=             -0.3361  XYY=              0.0000
  XXY=              0.0000  XXZ=              8.9135  XZZ=              0.0000  YZZ=              0.0000
  YYZ=              4.9153  XYZ=             -0.0000
 Hexadecapole moment (field-independent basis, Debye-Ang**3):
 XXXX=            -49.9340 YYYY=           -270.9017 ZZZZ=           -478.5118 XXXY=             -0.0000
 XXXZ=             -0.0000 YYYX=             -0.0000 YYYZ=             -0.0000 ZZZX=             -0.0000
 ZZZY=             -0.0000 XXYY=            -65.0443 XXZZ=            -93.6882 YYZZ=           -118.5105
 XXYZ=              0.0000 YYXZ=             -0.0000 ZZXY=             -0.0000
 N-N= 2.697087516693D+02 E-N=-1.315454525420D+03  KE= 3.304603009908D+02
 Symmetry A1   KE= 2.326124514117D+02
 Symmetry A2   KE= 2.248379033986D+00
 Symmetry B1   KE= 1.062675287364D+01
 Symmetry B2   KE= 8.497271767150D+01
 Calling FoFJK, ICntrl=      2127 FMM=F ISym2X=1 I1Cent= 0 IOpClX= 0 NMat=1 NMatS=1 NMatT=0.
 ***** Axes restored to original set *****
 -------------------------------------------------------------------
 Center     Atomic                   Forces (Hartrees/Bohr)
 Number     Number              X              Y              Z
 -------------------------------------------------------------------
      1        9          -0.000000000   -0.000000000    0.009257997
      2        6          -0.000000000    0.000000000   -0.013586955
      3        6           0.000000000   -0.000826030    0.000978105
      4        6           0.000000000    0.000826030    0.000978105
      5        6           0.000000000   -0.000245653    0.000053767
      6        6           0.000000000    0.000245653    0.000053767
      7        6          -0.000000000   -0.000000000    0.000445030
      8        1           0.000000000   -0.001453094   -0.001317761
      9        1           0.000000000    0.001453094   -0.001317761
     10        1           0.000000000   -0.002001536    0.001121005
     11        1           0.000000000    0.002001536    0.001121005
     12        1          -0.000000000    0.000000000    0.002213697
 -------------------------------------------------------------------
 Cartesian Forces:  Max     0.013586955 RMS     0.002872477

 GradGradGradGradGradGradGradGradGradGradGradGradGradGradGradGradGradGrad
 Berny optimization.
 FormGI is forming the generalized inverse of G from B-inverse, IUseBI=4.
 Internal  Forces:  Max     0.009257997 RMS     0.001694705
 Search for a local minimum.
 Step number   1 out of a maximum of   64
 All quantities printed in internal units (Hartrees-Bohrs-Radians)
 Mixed Optimization -- RFO/linear search
 Second derivative matrix not updated -- first step.
 ITU=  0
     Eigenvalues ---    0.02174   0.02176   0.02178   0.02179   0.02194
     Eigenvalues ---    0.02210   0.02216   0.02234   0.02247   0.16000
     Eigenvalues ---    0.16000   0.16000   0.16000   0.16000   0.22000
     Eigenvalues ---    0.22000   0.23504   0.25000   0.35420   0.35420
     Eigenvalues ---    0.35489   0.35564   0.35564   0.42531   0.42785
     Eigenvalues ---    0.46730   0.46817   0.47219   0.47536   0.57561
 RFO step:  Lambda=-3.16588591D-04 EMin= 2.17421168D-02
 Linear search not attempted -- first point.
 Iteration  1 RMS(Cart)=  0.00410603 RMS(Int)=  0.00000238
 Iteration  2 RMS(Cart)=  0.00000339 RMS(Int)=  0.00000032
 Iteration  3 RMS(Cart)=  0.00000000 RMS(Int)=  0.00000032
 ClnCor:  largest displacement from symmetrization is 2.99D-12 for atom     1.
 Variable       Old X    -DE/DX   Delta X   Delta X   Delta X     New X
                                 (Linear)    (Quad)   (Total)
    R1        2.52924   0.00926   0.00000   0.01607   0.01607   2.54532
    R2        2.62308  -0.00307   0.00000  -0.00647  -0.00647   2.61660
    R3        2.62308  -0.00307   0.00000  -0.00647  -0.00647   2.61660
    R4        2.63221  -0.00250   0.00000  -0.00534  -0.00534   2.62686
    R5        2.04769  -0.00193   0.00000  -0.00542  -0.00542   2.04227
    R6        2.63221  -0.00250   0.00000  -0.00534  -0.00534   2.62686
    R7        2.04769  -0.00193   0.00000  -0.00542  -0.00542   2.04227
    R8        2.63341  -0.00258   0.00000  -0.00549  -0.00550   2.62791
    R9        2.04999  -0.00229   0.00000  -0.00647  -0.00647   2.04352
   R10        2.63341  -0.00258   0.00000  -0.00549  -0.00550   2.62791
   R11        2.04999  -0.00229   0.00000  -0.00647  -0.00647   2.04352
   R12        2.04889  -0.00221   0.00000  -0.00623  -0.00623   2.04265
    A1        2.07698  -0.00037   0.00000  -0.00144  -0.00144   2.07554
    A2        2.07698  -0.00037   0.00000  -0.00144  -0.00144   2.07554
    A3        2.12923   0.00074   0.00000   0.00287   0.00287   2.13210
    A4        2.07086  -0.00037   0.00000  -0.00168  -0.00168   2.06917
    A5        2.08462   0.00056   0.00000   0.00316   0.00316   2.08777
    A6        2.12771  -0.00019   0.00000  -0.00147  -0.00147   2.12624
    A7        2.07086  -0.00037   0.00000  -0.00168  -0.00168   2.06917
    A8        2.08462   0.00056   0.00000   0.00316   0.00316   2.08777
    A9        2.12771  -0.00019   0.00000  -0.00147  -0.00147   2.12624
   A10        2.10247  -0.00003   0.00000   0.00002   0.00002   2.10248
   A11        2.08411   0.00003   0.00000   0.00012   0.00012   2.08423
   A12        2.09661  -0.00001   0.00000  -0.00014  -0.00014   2.09647
   A13        2.10247  -0.00003   0.00000   0.00002   0.00002   2.10248
   A14        2.08411   0.00003   0.00000   0.00012   0.00012   2.08423
   A15        2.09661  -0.00001   0.00000  -0.00014  -0.00014   2.09647
   A16        2.09050   0.00005   0.00000   0.00046   0.00046   2.09095
   A17        2.09634  -0.00003   0.00000  -0.00023  -0.00023   2.09612
   A18        2.09634  -0.00003   0.00000  -0.00023  -0.00023   2.09612
    D1        3.14159   0.00000   0.00000   0.00000   0.00000   3.14159
    D2       -0.00000   0.00000   0.00000   0.00000   0.00000   0.00000
    D3       -0.00000   0.00000   0.00000   0.00000   0.00000   0.00000
    D4        3.14159   0.00000   0.00000   0.00000   0.00000   3.14159
    D5        3.14159  -0.00000   0.00000  -0.00000   0.00000   3.14159
    D6       -0.00000  -0.00000   0.00000  -0.00000   0.00000   0.00000
    D7        0.00000  -0.00000   0.00000  -0.00000   0.00000   0.00000
    D8        3.14159  -0.00000   0.00000  -0.00000   0.00000   3.14159
    D9        0.00000  -0.00000   0.00000  -0.00000  -0.00000   0.00000
   D10        3.14159  -0.00000   0.00000  -0.00000   0.00000   3.14159
   D11        3.14159  -0.00000   0.00000  -0.00000   0.00000   3.14159
   D12        0.00000  -0.00000   0.00000  -0.00000   0.00000   0.00000
   D13       -0.00000  -0.00000   0.00000  -0.00000   0.00000   0.00000
   D14        3.14159  -0.00000   0.00000  -0.00000   0.00000   3.14159
   D15        3.14159   0.00000   0.00000   0.00000   0.00000   3.14159
   D16        0.00000   0.00000   0.00000   0.00000   0.00000   0.00000
   D17        0.00000  -0.00000   0.00000  -0.00000   0.00000   0.00000
   D18        3.14159  -0.00000   0.00000  -0.00000   0.00000   3.14159
   D19        3.14159  -0.00000   0.00000  -0.00000   0.00000   3.14159
   D20        0.00000  -0.00000   0.00000  -0.00000   0.00000   0.00000
   D21       -0.00000   0.00000   0.00000   0.00000   0.00000   0.00000
   D22        3.14159   0.00000   0.00000   0.00000   0.00000   3.14159
   D23        3.14159   0.00000   0.00000   0.00000   0.00000   3.14159
   D24       -0.00000   0.00000   0.00000   0.00000   0.00000   0.00000
         Item               Value     Threshold  Converged?
 Maximum Force            0.009258     0.000450     NO 
 RMS     Force            0.001695     0.000300     NO 
 Maximum Displacement     0.011393     0.001800     NO 
 RMS     Displacement     0.004107     0.001200     NO 
 Predicted change in Energy=-1.584028D-04
 GradGradGradGradGradGradGradGradGradGradGradGradGradGradGradGradGradGrad

                          Input orientation:                          
 ---------------------------------------------------------------------
 Center     Atomic      Atomic             Coordinates (Angstroms)
 Number     Number       Type             X           Y           Z
 ---------------------------------------------------------------------
      1          9           0       -0.000000    0.000000    2.275297
      2          6           0       -0.000000    0.000000    0.928374
      3          6           0        0.000000    1.211978    0.258778
      4          6           0       -0.000000   -1.211978    0.258778
      5          6           0        0.000000    1.203125   -1.131269
      6          6           0       -0.000000   -1.203125   -1.131269
      7          6           0        0.000000    0.000000   -1.828655
      8          1           0        0.000000    2.133846    0.822805
      9          1           0       -0.000000   -2.133846    0.822805
     10          1           0        0.000000    2.141676   -1.668400
     11          1           0       -0.000000   -2.141676   -1.668400
     12          1           0        0.000000    0.000000   -2.909581
 ---------------------------------------------------------------------
                    Distance matrix (angstroms):
                    1          2          3          4          5
     1  F    0.000000
     2  C    1.346923   0.000000
     3  C    2.352709   1.384648   0.000000
     4  C    2.352709   1.384648   2.423956   0.000000
     5  C    3.612783   2.385296   1.390075   2.786566   0.000000
     6  C    3.612783   2.385296   2.786566   1.390075   2.406249
     7  C    4.103952   2.757029   2.413766   2.413766   1.390632
     8  H    2.581285   2.136456   1.080725   3.393032   2.164404
     9  H    2.581285   2.136456   3.393032   1.080725   3.867011
    10  H    4.487708   3.366008   2.139709   3.867946   1.081383
    11  H    4.487708   3.366008   3.867946   2.139709   3.387654
    12  H    5.184878   3.837955   3.392255   3.392255   2.147069
                    6          7          8          9         10
     6  C    0.000000
     7  C    1.390632   0.000000
     8  H    3.867011   3.403460   0.000000
     9  H    2.164404   3.403460   4.267692   0.000000
    10  H    3.387654   2.147663   2.491217   4.948352   0.000000
    11  H    1.081383   2.147663   4.948352   2.491217   4.283352
    12  H    2.147069   1.080926   4.299303   4.299303   2.475340
                   11         12
    11  H    0.000000
    12  H    2.475340   0.000000
 Stoichiometry    C6H5F
 Framework group  C2V[C2(HCCF),SGV(C4H4)]
 Deg. of freedom    11
 Full point group                 C2V     NOp   4
 Largest Abelian subgroup         C2V     NOp   4
 Largest concise Abelian subgroup C2      NOp   2
                         Standard orientation:                         
 ---------------------------------------------------------------------
 Center     Atomic      Atomic             Coordinates (Angstroms)
 Number     Number       Type             X           Y           Z
 ---------------------------------------------------------------------
      1          9           0        0.000000    0.000000    2.275191
      2          6           0        0.000000    0.000000    0.928267
      3          6           0        0.000000    1.211978    0.258672
      4          6           0       -0.000000   -1.211978    0.258672
      5          6           0        0.000000    1.203125   -1.131375
      6          6           0       -0.000000   -1.203125   -1.131375
      7          6           0        0.000000   -0.000000   -1.828762
      8          1           0        0.000000    2.133846    0.822698
      9          1           0       -0.000000   -2.133846    0.822698
     10          1           0        0.000000    2.141676   -1.668506
     11          1           0       -0.000000   -2.141676   -1.668506
     12          1           0        0.000000   -0.000000   -2.909688
 ---------------------------------------------------------------------
 Rotational constants (GHZ):           5.7158722           2.5762921           1.7758640
 Basis read from rwf:  (5D, 7F)
 There are   126 symmetry adapted cartesian basis functions of A1  symmetry.
 There are    40 symmetry adapted cartesian basis functions of A2  symmetry.
 There are    57 symmetry adapted cartesian basis functions of B1  symmetry.
 There are    97 symmetry adapted cartesian basis functions of B2  symmetry.
 There are   106 symmetry adapted basis functions of A1  symmetry.
 There are    38 symmetry adapted basis functions of A2  symmetry.
 There are    52 symmetry adapted basis functions of B1  symmetry.
 There are    84 symmetry adapted basis functions of B2  symmetry.
   280 basis functions,   447 primitive gaussians,   320 cartesian basis functions
    25 alpha electrons       25 beta electrons
       nuclear repulsion energy       269.9762147805 Hartrees.
 NAtoms=   12 NActive=   12 NUniq=    8 SFac= 2.25D+00 NAtFMM=   60 NAOKFM=F Big=F
 Integral buffers will be    131072 words long.
 Raffenetti 2 integral format.
 Two-electron integral symmetry is turned on.
 One-electron integrals computed using PRISM.
 NBasis=   280 RedAO= T EigKep=  2.58D-05  NBF=   106    38    52    84
 NBsUse=   280 1.00D-06 EigRej= -1.00D+00 NBFU=   106    38    52    84
 Initial guess from the checkpoint file:  "/wrk/irikura/Gau-17482.chk"
 B after Tr=     0.000000   -0.000000   -0.000000
         Rot=    1.000000    0.000000    0.000000    0.000000 Ang=   0.00 deg.
 Initial guess orbital symmetries:
       Occupied  (A1) (A1) (A1) (B2) (B2) (A1) (A1) (A1) (A1) (B2)
                 (A1) (B2) (A1) (A1) (A1) (B2) (B1) (A1) (B2) (B2)
                 (A1) (B1) (B2) (A2) (B1)
       Virtual   (A2) (B1) (A1) (B2) (A1) (A1) (B2) (A1) (B1) (A1)
                 (B1) (A1) (B2) (A2) (B2) (B1) (A1) (B2) (A1) (A2)
                 (B1) (A1) (A1) (A1) (B2) (B2) (A1) (B2) (B1) (B2)
                 (A1) (A1) (B2) (A1) (B2) (B2) (A1) (A1) (B1) (A1)
                 (B2) (B2) (B2) (A1) (B1) (A1) (A1) (B2) (A2) (A2)
                 (B1) (A2) (B2) (A1) (A1) (B1) (A1) (B2) (A1) (A1)
                 (B1) (A1) (B2) (A1) (B2) (B1) (A2) (B2) (B1) (A1)
                 (B2) (A2) (B1) (B1) (A1) (A2) (B2) (A1) (B2) (B1)
                 (B2) (A2) (A1) (B1) (A2) (B2) (A1) (B1) (A1) (B1)
                 (B2) (A2) (A1) (A1) (B2) (A1) (A1) (A2) (B2) (A1)
                 (A1) (B2) (B2) (B2) (A1) (B1) (A1) (A2) (B2) (A1)
                 (A1) (B2) (B2) (A1) (B1) (B2) (A1) (A1) (B2) (A1)
                 (B2) (A1) (B2) (B1) (A2) (B1) (B2) (A2) (B1) (A1)
                 (A2) (B1) (B2) (B1) (A1) (A1) (A2) (B2) (B1) (B2)
                 (A1) (B2) (A1) (A2) (A1) (B2) (A1) (B1) (A1) (A1)
                 (B2) (B2) (A1) (A2) (B1) (B1) (A2) (B2) (A1) (B1)
                 (A1) (A2) (A1) (B1) (B2) (B2) (A2) (A1) (A1) (B2)
                 (B1) (B2) (A1) (A2) (A2) (B2) (A1) (B1) (A2) (B1)
                 (A1) (B1) (A2) (B2) (B1) (A1) (B2) (A2) (A1) (B1)
                 (B1) (A2) (B1) (B2) (A2) (B2) (A1) (A2) (B1) (B2)
                 (A2) (A1) (B1) (B1) (A1) (B2) (A2) (A1) (B2) (A1)
                 (B2) (B1) (B2) (A1) (B2) (B2) (A1) (B1) (A1) (B1)
                 (A2) (A1) (B2) (A2) (A1) (B2) (A1) (B2) (B1) (A1)
                 (A2) (B2) (A1) (B2) (A1) (B2) (B1) (A1) (B2) (A1)
                 (B2) (A1) (A1) (A1) (B2) (A1) (B2) (A1) (B2) (A2)
                 (A1) (B1) (A1) (B2) (A1)
 Keep R1 ints in memory in symmetry-blocked form, NReq=970784843.
 Requested convergence on RMS density matrix=1.00D-08 within 128 cycles.
 Requested convergence on MAX density matrix=1.00D-06.
 Requested convergence on             energy=1.00D-06.
 No special actions if energy rises.
 SCF Done:  E(RB3LYP) =  -331.619978351     A.U. after    8 cycles
            NFock=  8  Conv=0.82D-08     -V/T= 2.0033
 Calling FoFJK, ICntrl=      2127 FMM=F ISym2X=1 I1Cent= 0 IOpClX= 0 NMat=1 NMatS=1 NMatT=0.
 ***** Axes restored to original set *****
 -------------------------------------------------------------------
 Center     Atomic                   Forces (Hartrees/Bohr)
 Number     Number              X              Y              Z
 -------------------------------------------------------------------
      1        9          -0.000000000   -0.000000000    0.003394502
      2        6          -0.000000000   -0.000000000   -0.004938142
      3        6           0.000000000   -0.000042398    0.001320114
      4        6           0.000000000    0.000042398    0.001320114
      5        6           0.000000000    0.000106288   -0.000296367
      6        6           0.000000000   -0.000106288   -0.000296367
      7        6          -0.000000000   -0.000000000   -0.000162379
      8        1           0.000000000    0.000048211   -0.000102383
      9        1           0.000000000   -0.000048211   -0.000102383
     10        1           0.000000000    0.000051322   -0.000030978
     11        1           0.000000000   -0.000051322   -0.000030978
     12        1          -0.000000000    0.000000000   -0.000074750
 -------------------------------------------------------------------
 Cartesian Forces:  Max     0.004938142 RMS     0.001049602

 GradGradGradGradGradGradGradGradGradGradGradGradGradGradGradGradGradGrad
 Berny optimization.
 Using GEDIIS/GDIIS optimizer.
 FormGI is forming the generalized inverse of G from B-inverse, IUseBI=4.
 Internal  Forces:  Max     0.003394502 RMS     0.000502269
 Search for a local minimum.
 Step number   2 out of a maximum of   64
 All quantities printed in internal units (Hartrees-Bohrs-Radians)
 Mixed Optimization -- En-DIIS/RFO-DIIS
 Update second derivatives using D2CorX and points    1    2
 DE= -1.87D-04 DEPred=-1.58D-04 R= 1.18D+00
 TightC=F SS=  1.41D+00  RLast= 2.61D-02 DXNew= 5.0454D-01 7.8435D-02
 Trust test= 1.18D+00 RLast= 2.61D-02 DXMaxT set to 3.00D-01
 ITU=  1  0
 Use linear search instead of GDIIS.
     Eigenvalues ---    0.02174   0.02176   0.02178   0.02179   0.02194
     Eigenvalues ---    0.02210   0.02216   0.02234   0.02247   0.15858
     Eigenvalues ---    0.16000   0.16000   0.16000   0.16000   0.21981
     Eigenvalues ---    0.22000   0.22375   0.25000   0.35420   0.35458
     Eigenvalues ---    0.35475   0.35564   0.35847   0.40715   0.42521
     Eigenvalues ---    0.44533   0.46730   0.47537   0.47906   0.54028
 RFO step:  Lambda=-2.45515315D-05 EMin= 2.17421168D-02
 Quartic linear search produced a step of  0.22145.
 Iteration  1 RMS(Cart)=  0.00085127 RMS(Int)=  0.00000098
 Iteration  2 RMS(Cart)=  0.00000131 RMS(Int)=  0.00000042
 Iteration  3 RMS(Cart)=  0.00000000 RMS(Int)=  0.00000042
 ClnCor:  largest displacement from symmetrization is 2.38D-12 for atom     1.
 Variable       Old X    -DE/DX   Delta X   Delta X   Delta X     New X
                                 (Linear)    (Quad)   (Total)
    R1        2.54532   0.00339   0.00356   0.00490   0.00846   2.55378
    R2        2.61660  -0.00045  -0.00143  -0.00030  -0.00173   2.61487
    R3        2.61660  -0.00045  -0.00143  -0.00030  -0.00173   2.61487
    R4        2.62686   0.00045  -0.00118   0.00193   0.00075   2.62761
    R5        2.04227  -0.00001  -0.00120   0.00073  -0.00047   2.04181
    R6        2.62686   0.00045  -0.00118   0.00193   0.00075   2.62761
    R7        2.04227  -0.00001  -0.00120   0.00073  -0.00047   2.04181
    R8        2.62791   0.00028  -0.00122   0.00159   0.00037   2.62828
    R9        2.04352   0.00006  -0.00143   0.00113  -0.00030   2.04322
   R10        2.62791   0.00028  -0.00122   0.00159   0.00037   2.62828
   R11        2.04352   0.00006  -0.00143   0.00113  -0.00030   2.04322
   R12        2.04265   0.00007  -0.00138   0.00115  -0.00023   2.04242
    A1        2.07554  -0.00036  -0.00032  -0.00147  -0.00179   2.07375
    A2        2.07554  -0.00036  -0.00032  -0.00147  -0.00179   2.07375
    A3        2.13210   0.00073   0.00064   0.00295   0.00358   2.13568
    A4        2.06917  -0.00030  -0.00037  -0.00150  -0.00187   2.06731
    A5        2.08777   0.00026   0.00070   0.00130   0.00199   2.08977
    A6        2.12624   0.00003  -0.00033   0.00020  -0.00013   2.12611
    A7        2.06917  -0.00030  -0.00037  -0.00150  -0.00187   2.06731
    A8        2.08777   0.00026   0.00070   0.00130   0.00199   2.08977
    A9        2.12624   0.00003  -0.00033   0.00020  -0.00013   2.12611
   A10        2.10248  -0.00006   0.00000  -0.00010  -0.00009   2.10239
   A11        2.08423   0.00003   0.00003   0.00004   0.00007   2.08430
   A12        2.09647   0.00003  -0.00003   0.00006   0.00003   2.09650
   A13        2.10248  -0.00006   0.00000  -0.00010  -0.00009   2.10239
   A14        2.08423   0.00003   0.00003   0.00004   0.00007   2.08430
   A15        2.09647   0.00003  -0.00003   0.00006   0.00003   2.09650
   A16        2.09095  -0.00001   0.00010   0.00024   0.00034   2.09129
   A17        2.09612   0.00001  -0.00005  -0.00012  -0.00017   2.09595
   A18        2.09612   0.00001  -0.00005  -0.00012  -0.00017   2.09595
    D1        3.14159   0.00000   0.00000   0.00000   0.00000   3.14159
    D2       -0.00000   0.00000   0.00000   0.00000   0.00000   0.00000
    D3       -0.00000   0.00000   0.00000   0.00000   0.00000   0.00000
    D4        3.14159   0.00000   0.00000   0.00000   0.00000   3.14159
    D5        3.14159  -0.00000   0.00000  -0.00000   0.00000   3.14159
    D6        0.00000  -0.00000   0.00000  -0.00000   0.00000   0.00000
    D7        0.00000  -0.00000   0.00000  -0.00000   0.00000   0.00000
    D8        3.14159  -0.00000   0.00000  -0.00000   0.00000   3.14159
    D9       -0.00000  -0.00000   0.00000  -0.00000   0.00000   0.00000
   D10        3.14159  -0.00000   0.00000  -0.00000   0.00000   3.14159
   D11        3.14159  -0.00000   0.00000  -0.00000   0.00000   3.14159
   D12        0.00000  -0.00000   0.00000  -0.00000  -0.00000   0.00000
   D13       -0.00000  -0.00000   0.00000  -0.00000   0.00000   0.00000
   D14        3.14159  -0.00000   0.00000  -0.00000   0.00000   3.14159
   D15        3.14159   0.00000   0.00000   0.00000   0.00000   3.14159
   D16        0.00000   0.00000   0.00000   0.00000   0.00000   0.00000
   D17        0.00000  -0.00000   0.00000  -0.00000   0.00000   0.00000
   D18        3.14159  -0.00000   0.00000  -0.00000   0.00000   3.14159
   D19        3.14159  -0.00000   0.00000  -0.00000   0.00000   3.14159
   D20       -0.00000  -0.00000   0.00000  -0.00000   0.00000   0.00000
   D21       -0.00000   0.00000   0.00000   0.00000   0.00000   0.00000
   D22        3.14159   0.00000   0.00000   0.00000   0.00000   3.14159
   D23        3.14159   0.00000   0.00000   0.00000   0.00000   3.14159
   D24       -0.00000   0.00000   0.00000   0.00000   0.00000   0.00000
         Item               Value     Threshold  Converged?
 Maximum Force            0.003395     0.000450     NO 
 RMS     Force            0.000502     0.000300     NO 
 Maximum Displacement     0.004386     0.001800     NO 
 RMS     Displacement     0.000851     0.001200     YES
 Predicted change in Energy=-1.855656D-05
 GradGradGradGradGradGradGradGradGradGradGradGradGradGradGradGradGradGrad

                          Input orientation:                          
 ---------------------------------------------------------------------
 Center     Atomic      Atomic             Coordinates (Angstroms)
 Number     Number       Type             X           Y           Z
 ---------------------------------------------------------------------
      1          9           0       -0.000000    0.000000    2.277452
      2          6           0       -0.000000    0.000000    0.926053
      3          6           0        0.000000    1.212372    0.259072
      4          6           0       -0.000000   -1.212372    0.259072
      5          6           0        0.000000    1.203411   -1.131369
      6          6           0       -0.000000   -1.203411   -1.131369
      7          6           0        0.000000   -0.000000   -1.828650
      8          1           0        0.000000    2.134143    0.822783
      9          1           0       -0.000000   -2.134143    0.822783
     10          1           0        0.000000    2.141747   -1.668555
     11          1           0       -0.000000   -2.141747   -1.668555
     12          1           0        0.000000   -0.000000   -2.909454
 ---------------------------------------------------------------------
                    Distance matrix (angstroms):
                    1          2          3          4          5
     1  F    0.000000
     2  C    1.351400   0.000000
     3  C    2.354507   1.383730   0.000000
     4  C    2.354507   1.383730   2.424743   0.000000
     5  C    3.615005   2.383523   1.390470   2.787353   0.000000
     6  C    3.615005   2.383523   2.787353   1.390470   2.406823
     7  C    4.106103   2.754703   2.414214   2.414214   1.390827
     8  H    2.582756   2.136640   1.080478   3.393660   2.164480
     9  H    2.582756   2.136640   3.393660   1.080478   3.867555
    10  H    4.489773   3.364383   2.139974   3.868574   1.081223
    11  H    4.489773   3.364383   3.868574   2.139974   3.388016
    12  H    5.186906   3.835506   3.392551   3.392551   2.147041
                    6          7          8          9         10
     6  C    0.000000
     7  C    1.390827   0.000000
     8  H    3.867555   3.403625   0.000000
     9  H    2.164480   3.403625   4.268286   0.000000
    10  H    3.388016   2.147722   2.491350   4.948738   0.000000
    11  H    1.081223   2.147722   4.948738   2.491350   4.283495
    12  H    2.147041   1.080803   4.299321   4.299321   2.475260
                   11         12
    11  H    0.000000
    12  H    2.475260   0.000000
 Stoichiometry    C6H5F
 Framework group  C2V[C2(HCCF),SGV(C4H4)]
 Deg. of freedom    11
 Full point group                 C2V     NOp   4
 Largest Abelian subgroup         C2V     NOp   4
 Largest concise Abelian subgroup C2      NOp   2
                         Standard orientation:                         
 ---------------------------------------------------------------------
 Center     Atomic      Atomic             Coordinates (Angstroms)
 Number     Number       Type             X           Y           Z
 ---------------------------------------------------------------------
      1          9           0       -0.000000   -0.000000    2.277194
      2          6           0       -0.000000   -0.000000    0.925794
      3          6           0        0.000000    1.212372    0.258814
      4          6           0       -0.000000   -1.212372    0.258814
      5          6           0        0.000000    1.203411   -1.131628
      6          6           0       -0.000000   -1.203411   -1.131628
      7          6           0        0.000000    0.000000   -1.828909
      8          1           0        0.000000    2.134143    0.822525
      9          1           0       -0.000000   -2.134143    0.822525
     10          1           0        0.000000    2.141747   -1.668814
     11          1           0       -0.000000   -2.141747   -1.668814
     12          1           0        0.000000    0.000000   -2.909712
 ---------------------------------------------------------------------
 Rotational constants (GHZ):           5.7131170           2.5744367           1.7747165
 Basis read from rwf:  (5D, 7F)
 There are   126 symmetry adapted cartesian basis functions of A1  symmetry.
 There are    40 symmetry adapted cartesian basis functions of A2  symmetry.
 There are    57 symmetry adapted cartesian basis functions of B1  symmetry.
 There are    97 symmetry adapted cartesian basis functions of B2  symmetry.
 There are   106 symmetry adapted basis functions of A1  symmetry.
 There are    38 symmetry adapted basis functions of A2  symmetry.
 There are    52 symmetry adapted basis functions of B1  symmetry.
 There are    84 symmetry adapted basis functions of B2  symmetry.
   280 basis functions,   447 primitive gaussians,   320 cartesian basis functions
    25 alpha electrons       25 beta electrons
       nuclear repulsion energy       269.8855538657 Hartrees.
 NAtoms=   12 NActive=   12 NUniq=    8 SFac= 2.25D+00 NAtFMM=   60 NAOKFM=F Big=F
 Integral buffers will be    131072 words long.
 Raffenetti 2 integral format.
 Two-electron integral symmetry is turned on.
 One-electron integrals computed using PRISM.
 NBasis=   280 RedAO= T EigKep=  2.58D-05  NBF=   106    38    52    84
 NBsUse=   280 1.00D-06 EigRej= -1.00D+00 NBFU=   106    38    52    84
 Initial guess from the checkpoint file:  "/wrk/irikura/Gau-17482.chk"
 B after Tr=    -0.000000    0.000000    0.000000
         Rot=    1.000000    0.000000   -0.000000   -0.000000 Ang=   0.00 deg.
 Initial guess orbital symmetries:
       Occupied  (A1) (A1) (A1) (B2) (B2) (A1) (A1) (A1) (A1) (B2)
                 (A1) (B2) (A1) (A1) (A1) (B2) (B1) (A1) (B2) (B2)
                 (A1) (B1) (B2) (A2) (B1)
       Virtual   (A2) (B1) (A1) (B2) (A1) (A1) (B2) (A1) (B1) (A1)
                 (B1) (A1) (B2) (A2) (B2) (B1) (A1) (B2) (A1) (A2)
                 (B1) (A1) (A1) (A1) (B2) (B2) (A1) (B2) (B1) (B2)
                 (A1) (A1) (B2) (A1) (B2) (B2) (A1) (A1) (B1) (A1)
                 (B2) (B2) (B2) (A1) (B1) (A1) (A1) (B2) (A2) (A2)
                 (B1) (A2) (B2) (A1) (A1) (B1) (A1) (B2) (A1) (A1)
                 (B1) (A1) (B2) (A1) (B2) (B1) (A2) (B2) (B1) (A1)
                 (B2) (A2) (B1) (B1) (A1) (A2) (B2) (A1) (B2) (B1)
                 (B2) (A2) (A1) (B1) (A2) (B2) (A1) (B1) (A1) (B1)
                 (B2) (A2) (A1) (A1) (B2) (A1) (A1) (A2) (B2) (A1)
                 (A1) (B2) (B2) (B2) (A1) (B1) (A1) (A2) (B2) (A1)
                 (A1) (B2) (B2) (A1) (B1) (B2) (A1) (A1) (B2) (A1)
                 (B2) (A1) (B2) (B1) (A2) (B1) (B2) (A2) (B1) (A1)
                 (A2) (B1) (B2) (B1) (A1) (A1) (A2) (B2) (B1) (B2)
                 (A1) (B2) (A1) (A2) (A1) (B2) (A1) (B1) (A1) (A1)
                 (B2) (B2) (A1) (A2) (B1) (B1) (A2) (B2) (A1) (B1)
                 (A1) (A2) (A1) (B1) (B2) (B2) (A2) (A1) (A1) (B2)
                 (B1) (B2) (A1) (A2) (A2) (B2) (A1) (B1) (A2) (B1)
                 (A1) (B1) (B2) (A2) (B1) (A1) (B2) (A2) (A1) (B1)
                 (B1) (A2) (B1) (B2) (A2) (B2) (A1) (A2) (B1) (B2)
                 (A2) (A1) (B1) (B1) (A1) (A2) (B2) (A1) (A1) (B2)
                 (B2) (B1) (B2) (A1) (B2) (B2) (A1) (B1) (A1) (B1)
                 (A2) (A1) (B2) (A1) (A2) (B2) (A1) (B2) (B1) (A1)
                 (A2) (B2) (A1) (B2) (A1) (B2) (B1) (A1) (B2) (A1)
                 (B2) (A1) (A1) (A1) (B2) (A1) (B2) (A1) (B2) (A2)
                 (A1) (B1) (A1) (B2) (A1)
 Keep R1 ints in memory in symmetry-blocked form, NReq=970784843.
 Requested convergence on RMS density matrix=1.00D-08 within 128 cycles.
 Requested convergence on MAX density matrix=1.00D-06.
 Requested convergence on             energy=1.00D-06.
 No special actions if energy rises.
 SCF Done:  E(RB3LYP) =  -331.620000095     A.U. after    8 cycles
            NFock=  8  Conv=0.42D-08     -V/T= 2.0034
 Calling FoFJK, ICntrl=      2127 FMM=F ISym2X=1 I1Cent= 0 IOpClX= 0 NMat=1 NMatS=1 NMatT=0.
 ***** Axes restored to original set *****
 -------------------------------------------------------------------
 Center     Atomic                   Forces (Hartrees/Bohr)
 Number     Number              X              Y              Z
 -------------------------------------------------------------------
      1        9          -0.000000000    0.000000000    0.000497319
      2        6          -0.000000000   -0.000000000   -0.000860828
      3        6           0.000000000    0.000050361    0.000392111
      4        6           0.000000000   -0.000050361    0.000392111
      5        6           0.000000000   -0.000063142   -0.000126683
      6        6           0.000000000    0.000063142   -0.000126683
      7        6          -0.000000000   -0.000000000    0.000071809
      8        1           0.000000000    0.000072381    0.000049099
      9        1           0.000000000   -0.000072381    0.000049099
     10        1           0.000000000    0.000136008   -0.000090277
     11        1           0.000000000   -0.000136008   -0.000090277
     12        1          -0.000000000    0.000000000   -0.000156799
 -------------------------------------------------------------------
 Cartesian Forces:  Max     0.000860828 RMS     0.000199954

 GradGradGradGradGradGradGradGradGradGradGradGradGradGradGradGradGradGrad
 Berny optimization.
 Using GEDIIS/GDIIS optimizer.
 FormGI is forming the generalized inverse of G from B-inverse, IUseBI=4.
 Internal  Forces:  Max     0.000497319 RMS     0.000107911
 Search for a local minimum.
 Step number   3 out of a maximum of   64
 All quantities printed in internal units (Hartrees-Bohrs-Radians)
 Mixed Optimization -- En-DIIS/RFO-DIIS
 Swapping is turned off.
 Update second derivatives using D2CorX and points    1    2    3
 DE= -2.17D-05 DEPred=-1.86D-05 R= 1.17D+00
 TightC=F SS=  1.41D+00  RLast= 1.07D-02 DXNew= 5.0454D-01 3.2039D-02
 Trust test= 1.17D+00 RLast= 1.07D-02 DXMaxT set to 3.00D-01
 ITU=  1  1  0
     Eigenvalues ---    0.02174   0.02176   0.02178   0.02179   0.02194
     Eigenvalues ---    0.02210   0.02217   0.02234   0.02247   0.15831
     Eigenvalues ---    0.16000   0.16000   0.16000   0.16008   0.19966
     Eigenvalues ---    0.22000   0.22005   0.25000   0.35386   0.35420
     Eigenvalues ---    0.35468   0.35564   0.37278   0.38010   0.42526
     Eigenvalues ---    0.44222   0.46730   0.47538   0.48495   0.53892
 En-DIIS/RFO-DIIS/Sim-DIIS IScMMF=       -3 using points:     3    2
 RFO step:  Lambda=-2.04473973D-06.
 DidBck=F Rises=F RFO-DIIS coefs:    1.22941   -0.22941
 Iteration  1 RMS(Cart)=  0.00033540 RMS(Int)=  0.00000015
 Iteration  2 RMS(Cart)=  0.00000014 RMS(Int)=  0.00000012
 ClnCor:  largest displacement from symmetrization is 2.22D-12 for atom     1.
 Variable       Old X    -DE/DX   Delta X   Delta X   Delta X     New X
                                 (Linear)    (Quad)   (Total)
    R1        2.55378   0.00050   0.00194  -0.00031   0.00163   2.55541
    R2        2.61487  -0.00002  -0.00040   0.00012  -0.00027   2.61460
    R3        2.61487  -0.00002  -0.00040   0.00012  -0.00027   2.61460
    R4        2.62761   0.00026   0.00017   0.00038   0.00055   2.62816
    R5        2.04181   0.00009  -0.00011   0.00025   0.00015   2.04195
    R6        2.62761   0.00026   0.00017   0.00038   0.00055   2.62816
    R7        2.04181   0.00009  -0.00011   0.00025   0.00015   2.04195
    R8        2.62828   0.00013   0.00008   0.00013   0.00021   2.62849
    R9        2.04322   0.00016  -0.00007   0.00045   0.00038   2.04359
[...]
    R1        2.55541  -0.00001   0.00000   0.00000   0.00000   2.55541
    R2        2.61460   0.00002   0.00000   0.00003   0.00003   2.61463
    R3        2.61460   0.00002   0.00000   0.00003   0.00003   2.61463
    R4        2.62816   0.00004   0.00000   0.00009   0.00009   2.62824
    R5        2.04195   0.00001   0.00000   0.00002   0.00002   2.04198
    R6        2.62816   0.00004   0.00000   0.00009   0.00009   2.62824
    R7        2.04195   0.00001   0.00000   0.00002   0.00002   2.04198
    R8        2.62849   0.00001   0.00000   0.00002   0.00002   2.62851
    R9        2.04359   0.00002   0.00000   0.00006   0.00006   2.04366
   R10        2.62849   0.00001   0.00000   0.00002   0.00002   2.62851
   R11        2.04359   0.00002   0.00000   0.00006   0.00006   2.04366
   R12        2.04279   0.00003   0.00000   0.00007   0.00007   2.04286
    A1        2.07313  -0.00001   0.00000  -0.00007  -0.00007   2.07306
    A2        2.07313  -0.00001   0.00000  -0.00007  -0.00007   2.07306
    A3        2.13692   0.00003   0.00000   0.00015   0.00015   2.13706
    A4        2.06662  -0.00002   0.00000  -0.00009  -0.00009   2.06653
    A5        2.09016  -0.00001   0.00000  -0.00008  -0.00008   2.09008
    A6        2.12640   0.00002   0.00000   0.00017   0.00017   2.12657
    A7        2.06662  -0.00002   0.00000  -0.00009  -0.00009   2.06653
    A8        2.09016  -0.00001   0.00000  -0.00008  -0.00008   2.09008
    A9        2.12640   0.00002   0.00000   0.00017   0.00017   2.12657
   A10        2.10233  -0.00000   0.00000  -0.00003  -0.00003   2.10229
   A11        2.08441   0.00001   0.00000   0.00008   0.00008   2.08449
   A12        2.09644  -0.00000   0.00000  -0.00004  -0.00004   2.09640
   A13        2.10233  -0.00000   0.00000  -0.00003  -0.00003   2.10229
   A14        2.08441   0.00001   0.00000   0.00008   0.00008   2.08449
   A15        2.09644  -0.00000   0.00000  -0.00004  -0.00004   2.09640
   A16        2.09155   0.00002   0.00000   0.00010   0.00010   2.09165
   A17        2.09582  -0.00001   0.00000  -0.00005  -0.00005   2.09577
   A18        2.09582  -0.00001   0.00000  -0.00005  -0.00005   2.09577
    D1        3.14159   0.00000   0.00000   0.00000   0.00000   3.14159
    D2       -0.00000   0.00000   0.00000   0.00000   0.00000   0.00000
    D3       -0.00000   0.00000   0.00000   0.00000   0.00000   0.00000
    D4        3.14159   0.00000   0.00000   0.00000   0.00000   3.14159
    D5        3.14159  -0.00000   0.00000  -0.00000   0.00000   3.14159
    D6       -0.00000  -0.00000   0.00000  -0.00000   0.00000   0.00000
    D7        0.00000  -0.00000   0.00000  -0.00000   0.00000   0.00000
    D8        3.14159  -0.00000   0.00000  -0.00000   0.00000   3.14159
    D9        0.00000  -0.00000   0.00000  -0.00000  -0.00000   0.00000
   D10        3.14159   0.00000   0.00000   0.00000   0.00000   3.14159
   D11        3.14159  -0.00000   0.00000  -0.00000   0.00000   3.14159
   D12       -0.00000  -0.00000   0.00000  -0.00000   0.00000   0.00000
   D13        0.00000   0.00000   0.00000   0.00000  -0.00000   0.00000
   D14        3.14159   0.00000   0.00000  -0.00000   0.00000   3.14159
   D15        3.14159   0.00000   0.00000   0.00000   0.00000   3.14159
   D16       -0.00000   0.00000   0.00000   0.00000   0.00000   0.00000
   D17        0.00000  -0.00000   0.00000  -0.00000   0.00000   0.00000
   D18        3.14159  -0.00000   0.00000  -0.00000   0.00000   3.14159
   D19        3.14159  -0.00000   0.00000  -0.00000   0.00000   3.14159
   D20        0.00000  -0.00000   0.00000  -0.00000   0.00000   0.00000
   D21       -0.00000   0.00000   0.00000   0.00000   0.00000   0.00000
   D22        3.14159   0.00000   0.00000   0.00000   0.00000   3.14159
   D23        3.14159   0.00000   0.00000   0.00000   0.00000   3.14159
   D24        0.00000   0.00000   0.00000   0.00000  -0.00000   0.00000
         Item               Value     Threshold  Converged?
 Maximum Force            0.000041     0.000450     YES
 RMS     Force            0.000013     0.000300     YES
 Maximum Displacement     0.000328     0.001800     YES
 RMS     Displacement     0.000087     0.001200     YES
 Predicted change in Energy=-1.714600D-08
 Optimization completed.
    -- Stationary point found.
                           ----------------------------
                           !   Optimized Parameters   !
                           ! (Angstroms and Degrees)  !
 --------------------------                            --------------------------
 ! Name  Definition              Value          Derivative Info.                !
 --------------------------------------------------------------------------------
 ! R1    R(1,2)                  1.3523         -DE/DX =    0.0                 !
 ! R2    R(2,3)                  1.3836         -DE/DX =    0.0                 !
 ! R3    R(2,4)                  1.3836         -DE/DX =    0.0                 !
 ! R4    R(3,5)                  1.3908         -DE/DX =    0.0                 !
 ! R5    R(3,8)                  1.0806         -DE/DX =    0.0                 !
 ! R6    R(4,6)                  1.3908         -DE/DX =    0.0                 !
 ! R7    R(4,9)                  1.0806         -DE/DX =    0.0                 !
 ! R8    R(5,7)                  1.3909         -DE/DX =    0.0                 !
 ! R9    R(5,10)                 1.0814         -DE/DX =    0.0                 !
 ! R10   R(6,7)                  1.3909         -DE/DX =    0.0                 !
 ! R11   R(6,11)                 1.0814         -DE/DX =    0.0                 !
 ! R12   R(7,12)                 1.081          -DE/DX =    0.0                 !
 ! A1    A(1,2,3)              118.7818         -DE/DX =    0.0                 !
 ! A2    A(1,2,4)              118.7818         -DE/DX =    0.0                 !
 ! A3    A(3,2,4)              122.4364         -DE/DX =    0.0                 !
 ! A4    A(2,3,5)              118.4087         -DE/DX =    0.0                 !
 ! A5    A(2,3,8)              119.7576         -DE/DX =    0.0                 !
 ! A6    A(5,3,8)              121.8337         -DE/DX =    0.0                 !
 ! A7    A(2,4,6)              118.4087         -DE/DX =    0.0                 !
 ! A8    A(2,4,9)              119.7576         -DE/DX =    0.0                 !
 ! A9    A(6,4,9)              121.8337         -DE/DX =    0.0                 !
 ! A10   A(3,5,7)              120.4545         -DE/DX =    0.0                 !
 ! A11   A(3,5,10)             119.4281         -DE/DX =    0.0                 !
 ! A12   A(7,5,10)             120.1174         -DE/DX =    0.0                 !
 ! A13   A(4,6,7)              120.4545         -DE/DX =    0.0                 !
 ! A14   A(4,6,11)             119.4281         -DE/DX =    0.0                 !
 ! A15   A(7,6,11)             120.1174         -DE/DX =    0.0                 !
 ! A16   A(5,7,6)              119.8372         -DE/DX =    0.0                 !
 ! A17   A(5,7,12)             120.0814         -DE/DX =    0.0                 !
 ! A18   A(6,7,12)             120.0814         -DE/DX =    0.0                 !
 ! D1    D(1,2,3,5)            180.0            -DE/DX =    0.0                 !
 ! D2    D(1,2,3,8)              0.0            -DE/DX =    0.0                 !
 ! D3    D(4,2,3,5)              0.0            -DE/DX =    0.0                 !
 ! D4    D(4,2,3,8)            180.0            -DE/DX =    0.0                 !
 ! D5    D(1,2,4,6)            180.0            -DE/DX =    0.0                 !
 ! D6    D(1,2,4,9)              0.0            -DE/DX =    0.0                 !
 ! D7    D(3,2,4,6)              0.0            -DE/DX =    0.0                 !
 ! D8    D(3,2,4,9)            180.0            -DE/DX =    0.0                 !
 ! D9    D(2,3,5,7)              0.0            -DE/DX =    0.0                 !
 ! D10   D(2,3,5,10)           180.0            -DE/DX =    0.0                 !
 ! D11   D(8,3,5,7)            180.0            -DE/DX =    0.0                 !
 ! D12   D(8,3,5,10)             0.0            -DE/DX =    0.0                 !
 ! D13   D(2,4,6,7)              0.0            -DE/DX =    0.0                 !
 ! D14   D(2,4,6,11)           180.0            -DE/DX =    0.0                 !
 ! D15   D(9,4,6,7)            180.0            -DE/DX =    0.0                 !
 ! D16   D(9,4,6,11)             0.0            -DE/DX =    0.0                 !
 ! D17   D(3,5,7,6)              0.0            -DE/DX =    0.0                 !
 ! D18   D(3,5,7,12)           180.0            -DE/DX =    0.0                 !
 ! D19   D(10,5,7,6)           180.0            -DE/DX =    0.0                 !
 ! D20   D(10,5,7,12)            0.0            -DE/DX =    0.0                 !
 ! D21   D(4,6,7,5)              0.0            -DE/DX =    0.0                 !
 ! D22   D(4,6,7,12)           180.0            -DE/DX =    0.0                 !
 ! D23   D(11,6,7,5)           180.0            -DE/DX =    0.0                 !
 ! D24   D(11,6,7,12)            0.0            -DE/DX =    0.0                 !
 --------------------------------------------------------------------------------
 GradGradGradGradGradGradGradGradGradGradGradGradGradGradGradGradGradGrad


 ----------------------------------------------------------------------

 Electric dipole moment (input orientation):
 (Debye = 10**-18 statcoulomb cm , SI units = C m)
                  (au)            (Debye)         (10**-30 SI)
   Tot        0.630216D+00      0.160185D+01      0.534319D+01
   x          0.000000D+00      0.000000D+00      0.000000D+00
   y          0.000000D+00      0.000000D+00      0.000000D+00
   z         -0.630216D+00     -0.160185D+01     -0.534319D+01

 Dipole polarizability, Alpha (input orientation).
 (esu units = cm**3 , SI units = C**2 m**2 J**-1)
 Alpha(0;0):
               (au)            (10**-24 esu)      (10**-40 SI)
   iso        0.655644D+02      0.971564D+01      0.108101D+02
   aniso      0.399832D+02      0.592490D+01      0.659234D+01
   xx         0.389387D+02      0.577013D+01      0.642013D+01
   yx         0.000000D+00      0.000000D+00      0.000000D+00
   yy         0.777854D+02      0.115266D+02      0.128251D+02
   zx         0.000000D+00      0.000000D+00      0.000000D+00
   zy         0.000000D+00      0.000000D+00      0.000000D+00
   zz         0.799691D+02      0.118502D+02      0.131851D+02

 ----------------------------------------------------------------------

 Dipole orientation:
     9         -0.00000000         -0.00000000         -4.30425128
     6         -0.00000000         -0.00000000         -1.74884146
     6          0.00000000         -2.29158776         -0.48997811
     6         -0.00000000          2.29158776         -0.48997811
     6          0.00000000         -2.27447360          2.13812144
     6         -0.00000000          2.27447360          2.13812144
     6         -0.00000000          0.00000000          3.45560215
     1          0.00000000         -4.03337282         -1.55569908
     1         -0.00000000          4.03337282         -1.55569908
     1          0.00000000         -4.04781344          3.15377182
     1         -0.00000000          4.04781344          3.15377182
     1         -0.00000000          0.00000000          5.49839002

 Electric dipole moment (dipole orientation):
 (Debye = 10**-18 statcoulomb cm , SI units = C m)
                  (au)            (Debye)         (10**-30 SI)
   Tot        0.630216D+00      0.160185D+01      0.534319D+01
   x          0.000000D+00      0.000000D+00      0.000000D+00
   y          0.000000D+00      0.000000D+00      0.000000D+00
   z          0.630216D+00      0.160185D+01      0.534319D+01

 Dipole polarizability, Alpha (dipole orientation).
 (esu units = cm**3 , SI units = C**2 m**2 J**-1)
 Alpha(0;0):
               (au)            (10**-24 esu)      (10**-40 SI)
   iso        0.655644D+02      0.971564D+01      0.108101D+02
   aniso      0.399832D+02      0.592490D+01      0.659234D+01
   xx         0.389387D+02      0.577013D+01      0.642013D+01
   yx         0.000000D+00      0.000000D+00      0.000000D+00
   yy         0.777854D+02      0.115266D+02      0.128251D+02
   zx         0.000000D+00      0.000000D+00      0.000000D+00
   zy         0.000000D+00      0.000000D+00      0.000000D+00
   zz         0.799691D+02      0.118502D+02      0.131851D+02

 ----------------------------------------------------------------------
 1\1\GINC-GAMBA\Freq\RB3LYP\Gen\C6H5F1\IRIKURA\15-Jun-2022\0\\#N Geom=A
 llCheck Guess=TCheck SCRF=Check GenChk RB3LYP/ChkBas Freq\\fluorobenze
 ne, B3LYP/pcseg-2\\0,1\F,0.,0.,2.2777116853\C,0.,0.,0.9254470461\C,0.,
 1.2126560199,0.2592852521\C,0.,-1.2126560199,0.2592852521\C,0.,1.20359
 95986,-1.1314451413\C,0.,-1.2035995986,-1.1314451413\C,0.,0.,-1.828625
 906\H,0.,2.1343689818,0.8232404999\H,0.,-2.1343689818,0.8232404999\H,0
 .,2.1420106247,-1.668904176\H,0.,-2.1420106247,-1.668904176\H,0.,0.,-2
 .909622695\\Version=ES64L-G16RevB.01\State=1-A1\HF=-331.6200012\RMSD=2
 .045e-09\RMSF=1.561e-05\ZeroPoint=0.0922067\Thermal=0.0973379\Dipole=0
 .,0.,-0.6302161\DipoleDeriv=-0.1369635,0.,0.,0.,-0.1983691,0.,0.,0.,-1
 .3387109,0.0987761,0.,0.,0.,0.2433433,0.,0.,0.,1.4439982,-0.1403916,0.
 ,0.,0.,-0.0373183,0.1944587,0.,-0.0085407,-0.1902749,-0.1403916,0.,0.,
 0.,-0.0373183,-0.1944587,0.,0.0085407,-0.1902749,-0.1318353,0.,0.,0.,0
 .1170999,-0.0383941,0.,0.0326356,0.0907033,-0.1318353,0.,0.,0.,0.11709
 99,0.0383941,0.,-0.0326356,0.0907033,-0.1461146,0.,0.,0.,-0.1747573,0.
 ,0.,0.,0.0420816,0.1585128,0.,0.,0.,-0.000633,-0.0597282,0.,-0.0529493
 ,0.0389641,0.1585128,0.,0.,0.,-0.000633,0.0597282,0.,0.0529493,0.03896
 41,0.1335104,0.,0.,0.,-0.0465562,0.0664431,0.,0.0645813,0.0317423,0.13
 35104,0.,0.,0.,-0.0465562,-0.0664431,0.,-0.0645813,0.0317423,0.1447095
 ,0.,0.,0.,0.0645983,0.,0.,0.,-0.0896384\Polar=38.9387465,0.,77.7853555
 ,0.,0.,79.9690973\Quadrupole=-2.6635854,3.6619077,-0.9983223,0.,0.,0.\
 PG=C02V [C2(H1C1C1F1),SGV(C4H4)]\NImag=0\\0.02314640,0.,0.06863748,0.,
 0.,0.38747080,-0.04124864,0.,0.,0.15146233,0.,-0.07620674,0.,0.,0.7043
 1086,0.,0.,-0.29614668,0.,0.,0.64519194,0.00715968,0.,0.,-0.06670533,0
 .,0.,0.12543300,0.,0.00648640,0.00455191,0.,-0.29681356,0.11212498,0.,
 0.72752205,0.,0.04509797,-0.04652439,0.,0.03512485,-0.15218450,0.,0.04
 042249,0.69495630,0.00715968,0.,0.,-0.06670533,0.,0.,0.00878400,0.,0.,
 0.12543300,0.,0.00648640,-0.00455191,0.,-0.29681356,-0.11212498,0.,-0.
 05279047,0.02275852,0.,0.72752205,0.,-0.04509797,-0.04652439,0.,-0.035
 12485,-0.15218450,0.,-0.02275852,0.06016122,0.,-0.04042249,0.69495630,
 0.00741784,0.,0.,0.00106133,0.,0.,-0.05865675,0.,0.,-0.00238589,0.,0.,
 0.13549611,0.,-0.00816080,0.00505244,0.,0.04022222,0.02845470,0.,-0.12
 965985,0.03042266,0.,-0.01872493,-0.03002292,0.,0.71751582,0.,-0.00416
 528,0.00272488,0.,0.08611647,-0.03002895,0.,-0.03352592,-0.33309657,0.
 ,-0.02919455,-0.04817093,0.,-0.03629610,0.67621207,0.00741784,0.,0.,0.
 00106133,0.,0.,-0.00238589,0.,0.,-0.05865675,0.,0.,0.00620880,0.,0.,0.
 13549611,0.,-0.00816080,-0.00505244,0.,0.04022222,-0.02845470,0.,-0.01
 872493,0.03002292,0.,-0.12965985,-0.03042266,0.,-0.06099685,-0.0237495
 3,0.,0.71751582,0.,0.00416528,0.00272488,0.,-0.08611647,-0.03002895,0.
 ,0.02919455,-0.04817093,0.,0.03352592,-0.33309657,0.,0.02374953,0.0630
 1877,0.,0.03629610,0.67621207,-0.00125714,0.,0.,-0.00428581,0.,0.,0.00
 609907,0.,0.,0.00609907,0.,0.,-0.06208903,0.,0.,-0.06208903,0.,0.,0.13
 080516,0.,0.00506897,0.,0.,-0.07742177,0.,0.,0.03447181,-0.07393209,0.
 ,0.03447181,0.07393209,0.,-0.27793392,-0.05466393,0.,-0.27793392,0.054
 66393,0.,0.65213515,0.,0.,-0.00373444,0.,0.,0.00151300,0.,-0.02900810,
 -0.02935700,0.,0.02900810,-0.02935700,0.,-0.11757387,-0.17920844,0.,0.
 11757387,-0.17920844,0.,0.,0.74342645,-0.00431026,0.,0.,0.00497794,0.,
 0.,-0.03389103,0.,0.,0.00521625,0.,0.,0.00211673,0.,0.,-0.00123693,0.,
 0.,0.00742470,0.,0.,0.02404672,0.,0.00262341,-0.00003591,0.,-0.0195726
 5,-0.01894507,0.,-0.26706789,-0.12272030,0.,-0.00331863,0.00391679,0.,
 0.00530937,0.00168701,0.,0.00023965,0.00107044,0.,0.00180313,0.0008664
 0,0.,0.28007767,0.,-0.00119543,0.00194555,0.,0.01349432,0.01050803,0.,
 -0.12444803,-0.13248124,0.,0.00319859,-0.00112808,0.,-0.02807188,-0.01
 011473,0.,0.00068736,-0.00087893,0.,0.00141060,-0.00522992,0.,0.135175
 22,0.13619115,-0.00431026,0.,0.,0.00497794,0.,0.,0.00521625,0.,0.,-0.0
 3389103,0.,0.,-0.00123693,0.,0.,0.00211673,0.,0.,0.00742470,0.,0.,0.00
 021497,0.,0.,0.02404672,0.,0.00262341,0.00003591,0.,-0.01957265,0.0189
 4507,0.,-0.00331863,-0.00391679,0.,-0.26706789,0.12272030,0.,0.0002396
 5,-0.00107044,0.,0.00530937,-0.00168701,0.,0.00180313,-0.00086640,0.,-
 0.00089215,0.00075699,0.,0.28007767,0.,0.00119543,0.00194555,0.,-0.013
 49432,0.01050804,0.,-0.00319859,-0.00112808,0.,0.12444803,-0.13248124,
 0.,-0.00068736,-0.00087893,0.,0.02807188,-0.01011473,0.,-0.00141060,-0
 .00522992,0.,-0.00075699,0.00044390,0.,-0.13517522,0.13619115,-0.00004
 141,0.,0.,0.00785115,0.,0.,0.00320383,0.,0.,-0.00131270,0.,0.,-0.03708
 614,0.,0.,0.00706826,0.,0.,0.00336024,0.,0.,-0.00417740,0.,0.,-0.00068
 483,0.,0.,0.02576678,0.,0.00008914,-0.00013167,0.,0.00181006,-0.000859
 62,0.,0.00385751,-0.00181519,0.,0.00032583,-0.00084698,0.,-0.26866068,
 0.11972374,0.,-0.00339849,-0.00399409,0.,-0.01858839,0.01599875,0.,0.0
 0070212,0.00038546,0.,-0.00002405,0.00007734,0.,0.28383911,0.,0.001611
 25,-0.00188290,0.,-0.00181007,-0.00400385,0.,0.02892901,-0.01198268,0.
 ,-0.00067160,-0.00077390,0.,0.11952508,-0.12814025,0.,-0.00319007,-0.0
 0072234,0.,-0.01479501,0.01211614,0.,-0.00041978,0.00127383,0.,0.00005
 887,0.00004896,0.,-0.12907092,0.13285091,-0.00004141,0.,0.,0.00785115,
 0.,0.,-0.00131270,0.,0.,0.00320383,0.,0.,0.00706826,0.,0.,-0.03708614,
 0.,0.,0.00336024,0.,0.,-0.00068483,0.,0.,-0.00417740,0.,0.,0.00003740,
 0.,0.,0.02576678,0.,0.00008914,0.00013167,0.,0.00181006,0.00085962,0.,
 0.00032583,0.00084698,0.,0.00385751,0.00181519,0.,-0.00339849,0.003994
 09,0.,-0.26866068,-0.11972374,0.,-0.01858839,-0.01599875,0.,-0.0000240
 5,-0.00007734,0.,0.00070212,-0.00038546,0.,-0.00100529,-0.00078440,0.,
 0.28383911,0.,-0.00161125,-0.00188290,0.,0.00181007,-0.00400385,0.,0.0
 0067160,-0.00077390,0.,-0.02892901,-0.01198268,0.,0.00319007,-0.000722
 34,0.,-0.11952508,-0.12814025,0.,0.01479501,0.01211614,0.,-0.00005887,
 0.00004896,0.,0.00041978,0.00127383,0.,0.00078440,0.00040317,0.,0.1290
 7092,0.13285091,-0.00109231,0.,0.,-0.00029807,0.,0.,0.00705586,0.,0.,0
 .00705586,0.,0.,0.00208568,0.,0.,0.00208568,0.,0.,-0.03485216,0.,0.,0.
 00030315,0.,0.,0.00030315,0.,0.,-0.00398518,0.,0.,-0.00398518,0.,0.,0.
 02532350,0.,0.00042400,0.,0.,-0.00197448,0.,0.,-0.00428827,-0.00231202
 ,0.,-0.00428827,0.00231202,0.,0.00424847,-0.02885556,0.,0.00424847,0.0
 2885556,0.,-0.05928757,0.,0.,0.00012002,-0.00131585,0.,0.00012002,0.00
 131585,0.,0.00105314,0.00061763,0.,0.00105314,-0.00061763,0.,0.0585713
 3,0.,0.,-0.00011597,0.,0.,0.00086026,0.,-0.00295537,0.00058177,0.,0.00
 295537,0.00058177,0.,0.00225765,-0.01159458,0.,-0.00225765,-0.01159458
 ,0.,0.,-0.33784656,0.,0.00022105,-0.00057852,0.,-0.00022105,-0.0005785
 2,0.,-0.00025122,0.00081292,0.,0.00025122,0.00081292,0.,0.,0.35865907\
 \0.,0.,0.00000911,0.,0.,0.00000836,0.,-0.00002994,-0.00003289,0.,0.000
 02994,-0.00003289,0.,0.00001047,0.00002546,0.,-0.00001047,0.00002546,0
 .,0.,-0.00002837,0.,-0.00000202,-0.00001637,0.,0.00000202,-0.00001637,
 0.,-0.00001734,0.00001644,0.,0.00001734,0.00001644,0.,0.,0.00002562\\\
 @


 ALMOST ANYTHING IS EASIER TO GET INTO THAN OUT OF.

                         -- AGNES ALLEN'S LAW FROM
                PAUL DICKSON'S "THE OFFICIAL RULES"
 Job cpu time:       0 days  0 hours 26 minutes 40.3 seconds.
 Elapsed time:       0 days  0 hours  2 minutes 13.4 seconds.
 File lengths (MBytes):  RWF=     66 Int=      0 D2E=      0 Chk=      7 Scr=      1
 Normal termination of Gaussian 16 at Wed Jun 15 15:52:47 2022.
