 Entering Gaussian System, Link 0=g16
 AtFile(1): pcseg2.gbs
            -H     0
            S   4   1.00
                  0.754732D+02           0.427821D-02
                  0.113575D+02           0.328672D-01
                  0.260081D+01           0.159578D+00
                  0.735503D+00           0.500000D+00
            S   1   1.00
                  0.231761D+00           1.0000000
            S   1   1.00
                  0.741675D-01           1.0000000
            P   1   1.00
                  0.160000D+01           1.0000000
            P   1   1.00
                  0.450000D+00           1.0000000
            D   1   1.00
                  0.125000D+01           1.0000000
            ****
            -C     0
            S   7   1.00
                  0.731999D+04           0.695369D-03
                  0.109818D+04           0.537138D-02
                  0.250014D+03           0.274734D-01
                  0.707586D+02           0.105078D+00
                  0.228595D+02           0.291262D+00
                  0.803936D+01           0.500000D+00
                  0.289309D+01           0.362224D+00
            S   2   1.00
                  0.521640D+01          -0.957844D-01
                  0.556124D+00           0.500000D+00
            S   1   1.00
                  0.228813D+00           1.0000000
            S   1   1.00
                  0.936338D-01           1.0000000
            P   4   1.00
                  0.339855D+02           0.818395D-02
                  0.772957D+01           0.586921D-01
                  0.224954D+01           0.222514D+00
                  0.767681D+00           0.500000D+00
            P   1   1.00
                  0.263283D+00           1.0000000
            P   1   1.00
                  0.848744D-01           1.0000000
            D   1   1.00
                  0.140000D+01           1.0000000
            D   1   1.00
                  0.450000D+00           1.0000000
            F   1   1.00
                  0.950000D+00           1.0000000
            ****
            -O     0
            S   7   1.00
                  0.135887D+05           0.665492D-03
                  0.203847D+04           0.514222D-02
                  0.464041D+03           0.263472D-01
                  0.131339D+03           0.101500D+00
                  0.425340D+02           0.285877D+00
                  0.150429D+02           0.500000D+00
                  0.546616D+01           0.368211D+00
            S   2   1.00
                  0.100915D+02          -0.100084D+00
                  0.110429D+01           0.500000D+00
            S   1   1.00
                  0.448082D+00           1.0000000
            S   1   1.00
                  0.175325D+00           1.0000000
            P   4   1.00
                  0.608220D+02           0.908253D-02
                  0.140332D+02           0.645878D-01
                  0.418244D+01           0.241502D+00
                  0.142490D+01           0.500000D+00
            P   1   1.00
                  0.478741D+00           1.0000000
            P   1   1.00
                  0.146257D+00           1.0000000
            D   1   1.00
                  0.220000D+01           1.0000000
            D   1   1.00
                  0.650000D+00           1.0000000
            F   1   1.00
                  0.110000D+01           1.0000000
            ****
            -N     0
            S   7   1.00
                  0.101643D+05           0.682757D-03
                  0.152481D+04           0.527488D-02
                  0.347119D+03           0.270037D-01
                  0.982389D+02           0.103673D+00
                  0.317799D+02           0.289575D+00
                  0.112240D+02           0.500000D+00
                  0.406611D+01           0.364621D+00
            S   2   1.00
                  0.747898D+01          -0.975681D-01
                  0.805040D+00           0.500000D+00
            S   1   1.00
                  0.324626D+00           1.0000000
            S   1   1.00
                  0.128132D+00           1.0000000
            P   4   1.00
                  0.482704D+02           0.829547D-02
                  0.110815D+02           0.596223D-01
                  0.326643D+01           0.227889D+00
                  0.111680D+01           0.500000D+00
            P   1   1.00
                  0.382049D+00           1.0000000
            P   1   1.00
                  0.121222D+00           1.0000000
            D   1   1.00
                  0.180000D+01           1.0000000
            D   1   1.00
                  0.550000D+00           1.0000000
            F   1   1.00
                  0.102000D+01           1.0000000
            ****
            -F     0
            S   7   1.00
                  0.174507D+05           0.655972D-03
                  0.261768D+04           0.506944D-02
                  0.595857D+03           0.259899D-01
                  0.168651D+03           0.100353D+00
                  0.546654D+02           0.284095D+00
                  0.193717D+02           0.500000D+00
                  0.706202D+01           0.370721D+00
            S   2   1.00
                  0.131197D+02          -0.101997D+00
                  0.145046D+01           0.500000D+00
            S   1   1.00
                  0.588255D+00           1.0000000
            S   1   1.00
                  0.227960D+00           1.0000000
            P   4   1.00
                  0.779407D+02           0.931135D-02
                  0.180425D+02           0.663964D-01
                  0.542342D+01           0.246386D+00
                  0.184876D+01           0.500000D+00
            P   1   1.00
                  0.617455D+00           1.0000000
            P   1   1.00
                  0.185496D+00           1.0000000
            D   1   1.00
                  0.280000D+01           1.0000000
            D   1   1.00
                  0.800000D+00           1.0000000
            F   1   1.00
                  0.120000D+01           1.0000000
            ****
            -Cl     0
            S   8   1.00
                  0.154272D+06           0.222473D-03
                  0.231232D+05           0.172590D-02
                  0.526257D+04           0.899286D-02
                  0.148995D+04           0.367724D-01
                  0.485417D+03           0.121446D+00
                  0.174634D+03           0.304148D+00
                  0.672393D+02           0.500000D+00
                  0.265780D+02           0.360252D+00
            S   3   1.00
                  0.131826D+03          -0.531330D-01
                  0.400703D+02          -0.233346D+00
                  0.789448D+01           0.500000D+00
            S   2   1.00
                  0.427711D+01           0.500000D+00
                  0.196233D+01           0.370517D+00
            S   1   1.00
                  0.520793D+00           1.0000000
            S   1   1.00
                  0.181633D+00           1.0000000
            P   7   1.00
                  0.124440D+04           0.988206D-03
                  0.295109D+03           0.829674D-02
                  0.947224D+02           0.430906D-01
                  0.352588D+02           0.148443D+00
                  0.144211D+02           0.344744D+00
                  0.610371D+01           0.500000D+00
                  0.258886D+01           0.348278D+00
            P   2   1.00
                  0.109447D+02          -0.196768D-01
                  0.104413D+01           0.500000D+00
            P   1   1.00
                  0.376184D+00           1.0000000
            P   1   1.00
                  0.120613D+00           1.0000000
            D   1   1.00
                  0.231000D+01           1.0000000
            D   1   1.00
                  0.520000D+00           1.0000000
            F   1   1.00
                  0.720000D+00           1.0000000
            ****
            -S     0
            S   8   1.00
                  0.134700D+06           0.226231D-03
                  0.201904D+05           0.175488D-02
                  0.459528D+04           0.914190D-02
                  0.130109D+04           0.373551D-01
                  0.423902D+03           0.123121D+00
                  0.152485D+03           0.306801D+00
                  0.586925D+02           0.500000D+00
                  0.231461D+02           0.354358D+00
            S   3   1.00
                  0.116327D+03          -0.491772D-01
                  0.352841D+02          -0.215962D+00
                  0.677831D+01           0.500000D+00
            S   2   1.00
                  0.360404D+01           0.500000D+00
                  0.164871D+01           0.366278D+00
            S   1   1.00
                  0.421821D+00           1.0000000
            S   1   1.00
                  0.147554D+00           1.0000000
            P   7   1.00
                  0.104863D+04           0.105273D-02
                  0.248717D+03           0.879338D-02
                  0.797887D+02           0.453358D-01
                  0.296023D+02           0.154476D+00
                  0.120627D+02           0.352366D+00
                  0.507628D+01           0.500000D+00
                  0.213375D+01           0.346429D+00
            P   2   1.00
                  0.928958D+01          -0.185932D-01
                  0.837819D+00           0.500000D+00
            P   1   1.00
                  0.301495D+00           1.0000000
            P   1   1.00
                  0.974740D-01           1.0000000
            D   1   1.00
                  0.210000D+01           1.0000000
            D   1   1.00
                  0.480000D+00           1.0000000
            F   1   1.00
                  0.660000D+00           1.0000000
            ****
            -Br     0
            S    10   1.00
                  0.233625D+07           0.532336D-04
                  0.349961D+06           0.413715D-03
                  0.796444D+05           0.217123D-02
                  0.225555D+05           0.910109D-02
                  0.735546D+04           0.323789D-01
                  0.265352D+04           0.988755D-01
                  0.103517D+04           0.248138D+00
                  0.422205D+03           0.474328D+00
                  0.180035D+03           0.500000D+00
                  0.793308D+02           0.187769D+00
            S    4   1.00
                  0.620834D+03          -0.226511D-01
                  0.190829D+03          -0.109497D+00
                  0.312505D+02           0.500000D+00
                  0.135270D+02           0.492812D+00
            S    2   1.00
                  0.216097D+02          -0.165418D+00
                  0.372566D+01           0.500000D+00
            S    1   1.00
                  0.169770D+01           1.0000000
            S    1   1.00
                  0.489332D+00           1.0000000
            S    1   1.00
                  0.175712D+00           1.0000000
            P    8   1.00
                  0.960829D+04           0.478974D-03
                  0.227618D+04           0.417853D-02
                  0.736723D+03           0.229315D-01
                  0.281579D+03           0.892653D-01
                  0.118395D+03           0.255288D+00
                  0.527481D+02           0.479074D+00
                  0.245098D+02           0.500000D+00
                  0.112009D+02           0.200944D+00
            P    4   1.00
                  0.587849D+02          -0.189674D-01
                  0.918962D+01           0.264104D+00
                  0.413895D+01           0.500000D+00
                  0.184225D+01           0.319316D+00
            P    1   1.00
                  0.713862D+00           1.0000000
            P    1   1.00
                  0.274232D+00           1.0000000
            P    1   1.00
                  0.944411D-01           1.0000000
            D    7   1.00
                  0.398470D+03           0.204066D-02
                  0.118967D+03           0.175171D-01
                  0.450197D+02           0.829708D-01
                  0.190320D+02           0.236284D+00
                  0.855686D+01           0.428468D+00
                  0.382950D+01           0.500000D+00
                  0.166291D+01           0.349360D+00
            D    1   1.00
                  0.672953D+00           1.0000000
            D    1   1.00
                  0.252000D+00           1.0000000
            F    1   1.00
                  0.530000D+00           1.0000000
            ****
            -Si     0
            S    8   1.00
                  0.996133D+05           0.235546D-03
                  0.149311D+05           0.182707D-02
                  0.339820D+04           0.951425D-02
                  0.962140D+03           0.388172D-01
                  0.313430D+03           0.127328D+00
                  0.112683D+03           0.313522D+00
                  0.433372D+02           0.500000D+00
                  0.170029D+02           0.340347D+00
            S    3   1.00
                  0.884208D+02          -0.404451D-01
                  0.266756D+02          -0.178059D+00
                  0.479640D+01           0.500000D+00
            S    2   1.00
                  0.239385D+01           0.500000D+00
                  0.108333D+01           0.338016D+00
            S    1   1.00
                  0.252420D+00           1.0000000
            S    1   1.00
                  0.891210D-01           1.0000000
            P    7   1.00
                  0.709901D+03           0.123028D-02
                  0.168426D+03           0.101366D-01
                  0.539946D+02           0.511840D-01
                  0.198646D+02           0.169967D+00
                  0.801369D+01           0.370717D+00
                  0.331870D+01           0.500000D+00
                  0.136112D+01           0.344128D+00
            P    2   1.00
                  0.622158D+01          -0.166609D-01
                  0.503049D+00           0.500000D+00
            P    1   1.00
                  0.179848D+00           1.0000000
            P    1   1.00
                  0.591912D-01           1.0000000
            D    1   1.00
                  0.168000D+01           1.0000000
            D    1   1.00
                  0.380000D+00           1.0000000
            F    1   1.00
                  0.540000D+00           1.0000000
            ****
            -P     0
            S    8   1.00
                  0.116416D+06           0.230715D-03
                  0.174500D+05           0.178960D-02
                  0.397149D+04           0.932116D-02
                  0.112447D+04           0.380591D-01
                  0.366347D+03           0.125148D+00
                  0.131757D+03           0.310022D+00
                  0.506988D+02           0.500000D+00
                  0.199436D+02           0.347528D+00
            S    3   1.00
                  0.101878D+03          -0.446755D-01
                  0.308249D+02          -0.196376D+00
                  0.573688D+01           0.500000D+00
            S    2   1.00
                  0.296868D+01           0.500000D+00
                  0.135315D+01           0.355098D+00
            S    1   1.00
                  0.332196D+00           1.0000000
            S    1   1.00
                  0.116229D+00           1.0000000
            P    7   1.00
                  0.873928D+03           0.112375D-02
                  0.207298D+03           0.933330D-02
                  0.664628D+02           0.477213D-01
                  0.245665D+02           0.160733D+00
                  0.996820D+01           0.359760D+00
                  0.416536D+01           0.500000D+00
                  0.173022D+01           0.346593D+00
            P    2   1.00
                  0.772530D+01          -0.175718D-01
                  0.657252D+00           0.500000D+00
            P    1   1.00
                  0.239903D+00           1.0000000
            P    1   1.00
                  0.800988D-01           1.0000000
            D    1   1.00
                  0.189000D+01           1.0000000
            D    1   1.00
                  0.430000D+00           1.0000000
            F    1   1.00
                  0.600000D+00           1.0000000
            ****
            
 Initial command:
 /usr/local/apps/g16_b01_avx/g16/l1.exe "/wrk/irikura/Gau-8578.inp" -scrdir="/wrk/irikura/"
 Entering Link 1 = /usr/local/apps/g16_b01_avx/g16/l1.exe PID=      8580.
  
 Copyright (c) 1988-2017, Gaussian, Inc.  All Rights Reserved.
  
 This is part of the Gaussian(R) 16 program.  It is based on
 the Gaussian(R) 09 system (copyright 2009, Gaussian, Inc.),
 the Gaussian(R) 03 system (copyright 2003, Gaussian, Inc.),
 the Gaussian(R) 98 system (copyright 1998, Gaussian, Inc.),
 the Gaussian(R) 94 system (copyright 1995, Gaussian, Inc.),
 the Gaussian 92(TM) system (copyright 1992, Gaussian, Inc.),
 the Gaussian 90(TM) system (copyright 1990, Gaussian, Inc.),
 the Gaussian 88(TM) system (copyright 1988, Gaussian, Inc.),
 the Gaussian 86(TM) system (copyright 1986, Carnegie Mellon
 University), and the Gaussian 82(TM) system (copyright 1983,
 Carnegie Mellon University). Gaussian is a federally registered
 trademark of Gaussian, Inc.
  
 This software contains proprietary and confidential information,
 including trade secrets, belonging to Gaussian, Inc.
  
 This software is provided under written license and may be
 used, copied, transmitted, or stored only in accord with that
 written license.
  
 The following legend is applicable only to US Government
 contracts under FAR:
  
                    RESTRICTED RIGHTS LEGEND
  
 Use, reproduction and disclosure by the US Government is
 subject to restrictions as set forth in subparagraphs (a)
 and (c) of the Commercial Computer Software - Restricted
 Rights clause in FAR 52.227-19.
  
 Gaussian, Inc.
 340 Quinnipiac St., Bldg. 40, Wallingford CT 06492
  
  
 ---------------------------------------------------------------
 Warning -- This program may not be used in any manner that
 competes with the business of Gaussian, Inc. or will provide
 assistance to any competitor of Gaussian, Inc.  The licensee
 of this program is prohibited from giving any competitor of
 Gaussian, Inc. access to this program.  By using this program,
 the user acknowledges that Gaussian, Inc. is engaged in the
 business of creating and licensing software in the field of
 computational chemistry and represents and warrants to the
 licensee that it is not a competitor of Gaussian, Inc. and that
 it will not use this program in any manner prohibited above.
 ---------------------------------------------------------------
  

 Cite this work as:
 Gaussian 16, Revision B.01,
 M. J. Frisch, G. W. Trucks, H. B. Schlegel, G. E. Scuseria, 
 M. A. Robb, J. R. Cheeseman, G. Scalmani, V. Barone, 
 G. A. Petersson, H. Nakatsuji, X. Li, M. Caricato, A. V. Marenich, 
 J. Bloino, B. G. Janesko, R. Gomperts, B. Mennucci, H. P. Hratchian, 
 J. V. Ortiz, A. F. Izmaylov, J. L. Sonnenberg, D. Williams-Young, 
 F. Ding, F. Lipparini, F. Egidi, J. Goings, B. Peng, A. Petrone, 
 T. Henderson, D. Ranasinghe, V. G. Zakrzewski, J. Gao, N. Rega, 
 G. Zheng, W. Liang, M. Hada, M. Ehara, K. Toyota, R. Fukuda, 
 J. Hasegawa, M. Ishida, T. Nakajima, Y. Honda, O. Kitao, H. Nakai, 
 T. Vreven, K. Throssell, J. A. Montgomery, Jr., J. E. Peralta, 
 F. Ogliaro, M. J. Bearpark, J. J. Heyd, E. N. Brothers, K. N. Kudin, 
 V. N. Staroverov, T. A. Keith, R. Kobayashi, J. Normand, 
 K. Raghavachari, A. P. Rendell, J. C. Burant, S. S. Iyengar, 
 J. Tomasi, M. Cossi, J. M. Millam, M. Klene, C. Adamo, R. Cammi, 
 J. W. Ochterski, R. L. Martin, K. Morokuma, O. Farkas, 
 J. B. Foresman, and D. J. Fox, Gaussian, Inc., Wallingford CT, 2016.
 
 ******************************************
 Gaussian 16:  ES64L-G16RevB.01 20-Dec-2017
                16-Jun-2022 
 ******************************************
 %mem=1000mw
 %nprocs=12
 Will use up to   12 processors via shared memory.
 --------------------
 # b3lyp/gen opt freq
 --------------------
 1/18=20,19=15,26=3,38=1/1,3;
 2/9=110,12=2,17=6,18=5,40=1/2;
 3/5=7,11=2,25=1,30=1,71=1,74=-5/1,2,3;
 4//1;
 5/5=2,38=5/2;
 6/7=2,8=2,9=2,10=2,28=1/1;
 7//1,2,3,16;
 1/18=20,19=15,26=3/3(2);
 2/9=110/2;
 99//99;
 2/9=110/2;
 3/5=7,6=1,11=2,25=1,30=1,71=1,74=-5,82=7/1,2,3;
 4/5=5,16=3,69=1/1;
 5/5=2,38=5/2;
 7//1,2,3,16;
 1/18=20,19=15,26=3/3(-5);
 2/9=110/2;
 6/7=2,8=2,9=2,10=2,19=2,28=1/1;
 99/9=1/99;
 -----------------------------
 nitrosobenzene, B3LYP/pcseg-2
 -----------------------------
 Symbolic Z-matrix:
 Charge =  0 Multiplicity = 1
 C                     0.        0.5967    0. 
 C                    -1.05257  -0.32504   0. 
 C                    -0.76182  -1.68033   0. 
 C                     0.57037  -2.11113   0. 
 C                     1.61543  -1.18868   0. 
 C                     1.32893   0.17295   0. 
 N                    -0.19091   2.02717   0. 
 O                    -1.34688   2.39528   0. 
 H                    -2.06913   0.0482    0. 
 H                    -1.56438  -2.40896   0. 
 H                     0.79     -3.17292   0. 
 H                     2.64359  -1.53061   0. 
 H                     2.10922   0.92513   0. 
 

 GradGradGradGradGradGradGradGradGradGradGradGradGradGradGradGradGradGrad
 Berny optimization.
 Initialization pass.
                           ----------------------------
                           !    Initial Parameters    !
                           ! (Angstroms and Degrees)  !
 --------------------------                            --------------------------
 ! Name  Definition              Value          Derivative Info.                !
 --------------------------------------------------------------------------------
 ! R1    R(1,2)                  1.3991         estimate D2E/DX2                !
 ! R2    R(1,6)                  1.3949         estimate D2E/DX2                !
 ! R3    R(1,7)                  1.4431         estimate D2E/DX2                !
 ! R4    R(2,3)                  1.3861         estimate D2E/DX2                !
 ! R5    R(2,9)                  1.0829         estimate D2E/DX2                !
 ! R6    R(3,4)                  1.4001         estimate D2E/DX2                !
 ! R7    R(3,10)                 1.084          estimate D2E/DX2                !
 ! R8    R(4,5)                  1.3939         estimate D2E/DX2                !
 ! R9    R(4,11)                 1.0843         estimate D2E/DX2                !
 ! R10   R(5,6)                  1.3915         estimate D2E/DX2                !
 ! R11   R(5,12)                 1.0835         estimate D2E/DX2                !
 ! R12   R(6,13)                 1.0838         estimate D2E/DX2                !
 ! R13   R(7,8)                  1.2132         estimate D2E/DX2                !
 ! A1    A(2,1,6)              121.1056         estimate D2E/DX2                !
 ! A2    A(2,1,7)              123.6072         estimate D2E/DX2                !
 ! A3    A(6,1,7)              115.2873         estimate D2E/DX2                !
 ! A4    A(1,2,3)              119.1006         estimate D2E/DX2                !
 ! A5    A(1,2,9)              118.63           estimate D2E/DX2                !
 ! A6    A(3,2,9)              122.2693         estimate D2E/DX2                !
 ! A7    A(2,3,4)              120.0283         estimate D2E/DX2                !
 ! A8    A(2,3,10)             120.1273         estimate D2E/DX2                !
 ! A9    A(4,3,10)             119.8443         estimate D2E/DX2                !
 ! A10   A(3,4,5)              120.6458         estimate D2E/DX2                !
 ! A11   A(3,4,11)             119.6069         estimate D2E/DX2                !
 ! A12   A(5,4,11)             119.7474         estimate D2E/DX2                !
 ! A13   A(4,5,6)              119.5519         estimate D2E/DX2                !
 ! A14   A(4,5,12)             120.1709         estimate D2E/DX2                !
 ! A15   A(6,5,12)             120.2772         estimate D2E/DX2                !
 ! A16   A(1,6,5)              119.5678         estimate D2E/DX2                !
 ! A17   A(1,6,13)             118.3653         estimate D2E/DX2                !
 ! A18   A(5,6,13)             122.0669         estimate D2E/DX2                !
 ! A19   A(1,7,8)              115.2654         estimate D2E/DX2                !
 ! D1    D(6,1,2,3)              0.0            estimate D2E/DX2                !
 ! D2    D(6,1,2,9)            180.0            estimate D2E/DX2                !
 ! D3    D(7,1,2,3)            180.0            estimate D2E/DX2                !
 ! D4    D(7,1,2,9)              0.0            estimate D2E/DX2                !
 ! D5    D(2,1,6,5)              0.0            estimate D2E/DX2                !
 ! D6    D(2,1,6,13)           180.0            estimate D2E/DX2                !
 ! D7    D(7,1,6,5)            180.0            estimate D2E/DX2                !
 ! D8    D(7,1,6,13)             0.0            estimate D2E/DX2                !
 ! D9    D(2,1,7,8)              0.0            estimate D2E/DX2                !
 ! D10   D(6,1,7,8)            180.0            estimate D2E/DX2                !
 ! D11   D(1,2,3,4)              0.0            estimate D2E/DX2                !
 ! D12   D(1,2,3,10)           180.0            estimate D2E/DX2                !
 ! D13   D(9,2,3,4)            180.0            estimate D2E/DX2                !
 ! D14   D(9,2,3,10)             0.0            estimate D2E/DX2                !
 ! D15   D(2,3,4,5)              0.0            estimate D2E/DX2                !
 ! D16   D(2,3,4,11)           180.0            estimate D2E/DX2                !
 ! D17   D(10,3,4,5)           180.0            estimate D2E/DX2                !
 ! D18   D(10,3,4,11)            0.0            estimate D2E/DX2                !
 ! D19   D(3,4,5,6)              0.0            estimate D2E/DX2                !
 ! D20   D(3,4,5,12)           180.0            estimate D2E/DX2                !
 ! D21   D(11,4,5,6)           180.0            estimate D2E/DX2                !
 ! D22   D(11,4,5,12)            0.0            estimate D2E/DX2                !
 ! D23   D(4,5,6,1)              0.0            estimate D2E/DX2                !
 ! D24   D(4,5,6,13)           180.0            estimate D2E/DX2                !
 ! D25   D(12,5,6,1)           180.0            estimate D2E/DX2                !
 ! D26   D(12,5,6,13)            0.0            estimate D2E/DX2                !
 --------------------------------------------------------------------------------
 Trust Radius=3.00D-01 FncErr=1.00D-07 GrdErr=1.00D-06 EigMax=2.50D+02 EigMin=1.00D-04
 Number of steps in this run=     68 maximum allowed number of steps=    100.
 GradGradGradGradGradGradGradGradGradGradGradGradGradGradGradGradGradGrad

                          Input orientation:                          
 ---------------------------------------------------------------------
 Center     Atomic      Atomic             Coordinates (Angstroms)
 Number     Number       Type             X           Y           Z
 ---------------------------------------------------------------------
      1          6           0        0.000000    0.596701    0.000000
      2          6           0       -1.052569   -0.325040    0.000000
      3          6           0       -0.761817   -1.680333    0.000000
      4          6           0        0.570368   -2.111135    0.000000
      5          6           0        1.615430   -1.188684    0.000000
      6          6           0        1.328930    0.172953    0.000000
      7          7           0       -0.190907    2.027167    0.000000
      8          8           0       -1.346876    2.395277    0.000000
      9          1           0       -2.069132    0.048200    0.000000
     10          1           0       -1.564379   -2.408958    0.000000
     11          1           0        0.789996   -3.172921    0.000000
     12          1           0        2.643592   -1.530609    0.000000
     13          1           0        2.109222    0.925133    0.000000
 ---------------------------------------------------------------------
                    Distance matrix (angstroms):
                    1          2          3          4          5
     1  C    0.000000
     2  C    1.399110   0.000000
     3  C    2.401093   1.386130   0.000000
     4  C    2.767254   2.413309   1.400110   0.000000
     5  C    2.407740   2.804300   2.427555   1.393941   0.000000
     6  C    1.394854   2.433009   2.793903   2.406756   1.391452
     7  N    1.443149   2.505063   3.751199   4.207741   3.688435
     8  O    2.246987   2.736191   4.117389   4.897303   4.649735
     9  H    2.140598   1.082917   2.167233   3.410233   3.886628
    10  H    3.388402   2.145848   1.083974   2.155422   3.405915
    11  H    3.851512   3.391972   2.153124   1.084263   2.149078
    12  H    3.393232   3.887802   3.408699   2.152967   1.083527
    13  H    2.134639   3.399979   3.877024   3.403968   2.170726
                    6          7          8          9         10
     6  C    0.000000
     7  N    2.397502   0.000000
     8  O    3.478313   1.213165   0.000000
     9  H    3.400351   2.728377   2.455692   0.000000
    10  H    3.877822   4.643881   4.809156   2.508466   0.000000
    11  H    3.389000   5.291794   5.964147   4.306998   2.475221
    12  H    2.151850   4.548863   5.597894   4.970151   4.298665
    13  H    1.083804   2.550504   3.755787   4.269386   4.960999
                   11         12         13
    11  H    0.000000
    12  H    2.476491   0.000000
    13  H    4.305160   2.513209   0.000000
 Stoichiometry    C6H5NO
 Framework group  CS[SG(C6H5NO)]
 Deg. of freedom    23
 Full point group                 CS      NOp   2
 Largest Abelian subgroup         CS      NOp   2
 Largest concise Abelian subgroup C1      NOp   1
                         Standard orientation:                         
 ---------------------------------------------------------------------
 Center     Atomic      Atomic             Coordinates (Angstroms)
 Number     Number       Type             X           Y           Z
 ---------------------------------------------------------------------
      1          6           0        0.000000    0.596701    0.000000
      2          6           0       -1.052569   -0.325040    0.000000
      3          6           0       -0.761817   -1.680333    0.000000
      4          6           0        0.570368   -2.111135    0.000000
      5          6           0        1.615430   -1.188684    0.000000
      6          6           0        1.328930    0.172953    0.000000
      7          7           0       -0.190907    2.027167    0.000000
      8          8           0       -1.346876    2.395277    0.000000
      9          1           0       -2.069132    0.048200    0.000000
     10          1           0       -1.564378   -2.408958    0.000000
     11          1           0        0.789997   -3.172921    0.000000
     12          1           0        2.643592   -1.530609    0.000000
     13          1           0        2.109222    0.925133    0.000000
 ---------------------------------------------------------------------
 Rotational constants (GHZ):           5.2743403           1.6424929           1.2524614
 General basis read from cards:  (5D, 7F)
 There are   247 symmetry adapted cartesian basis functions of A'  symmetry.
 There are   108 symmetry adapted cartesian basis functions of A"  symmetry.
 There are   210 symmetry adapted basis functions of A'  symmetry.
 There are   100 symmetry adapted basis functions of A"  symmetry.
   310 basis functions,   498 primitive gaussians,   355 cartesian basis functions
    28 alpha electrons       28 beta electrons
       nuclear repulsion energy       324.4347410379 Hartrees.
 NAtoms=   13 NActive=   13 NUniq=   13 SFac= 1.00D+00 NAtFMM=   60 NAOKFM=F Big=F
 Integral buffers will be    131072 words long.
 Raffenetti 2 integral format.
 Two-electron integral symmetry is turned on.
 One-electron integrals computed using PRISM.
 NBasis=   310 RedAO= T EigKep=  2.23D-05  NBF=   210   100
 NBsUse=   310 1.00D-06 EigRej= -1.00D+00 NBFU=   210   100
 ExpMin= 7.42D-02 ExpMax= 1.36D+04 ExpMxC= 4.64D+02 IAcc=3 IRadAn=         5 AccDes= 0.00D+00
 Harris functional with IExCor=  402 and IRadAn=       5 diagonalized for initial guess.
 HarFok:  IExCor=  402 AccDes= 0.00D+00 IRadAn=         5 IDoV= 1 UseB2=F ITyADJ=14
 ICtDFT=  3500011 ScaDFX=  1.000000  1.000000  1.000000  1.000000
 FoFCou: FMM=F IPFlag=           0 FMFlag=      100000 FMFlg1=           0
         NFxFlg=           0 DoJE=T BraDBF=F KetDBF=T FulRan=T
         wScrn=  0.000000 ICntrl=       500 IOpCl=  0 I1Cent=   200000004 NGrid=           0
         NMat0=    1 NMatS0=      1 NMatT0=    0 NMatD0=    1 NMtDS0=    0 NMtDT0=    0
 Petite list used in FoFCou.
 Initial guess orbital symmetries:
       Occupied  (A') (A') (A') (A') (A') (A') (A') (A') (A') (A')
                 (A') (A') (A') (A') (A') (A') (A') (A') (A') (A')
                 (A") (A') (A') (A") (A') (A") (A") (A')
       Virtual   (A") (A") (A") (A') (A') (A") (A') (A') (A') (A')
                 (A') (A') (A") (A') (A') (A') (A") (A') (A") (A')
                 (A') (A') (A') (A") (A') (A") (A') (A') (A') (A')
                 (A') (A') (A") (A") (A') (A') (A') (A') (A') (A')
                 (A') (A") (A') (A') (A') (A') (A') (A') (A') (A")
                 (A') (A') (A') (A") (A") (A') (A") (A') (A") (A')
                 (A') (A") (A') (A') (A') (A') (A") (A') (A') (A")
                 (A") (A') (A') (A") (A') (A') (A') (A") (A") (A")
                 (A') (A") (A') (A") (A") (A') (A') (A') (A') (A")
                 (A") (A') (A') (A") (A") (A') (A") (A') (A") (A')
                 (A') (A") (A') (A') (A') (A") (A') (A') (A') (A')
                 (A') (A') (A') (A") (A') (A') (A') (A") (A') (A')
                 (A') (A") (A") (A') (A') (A') (A') (A') (A') (A')
                 (A') (A') (A") (A') (A') (A') (A') (A') (A") (A')
                 (A") (A') (A") (A") (A') (A") (A") (A') (A') (A")
                 (A') (A") (A") (A') (A') (A') (A') (A') (A") (A")
                 (A') (A') (A') (A') (A") (A') (A') (A') (A') (A')
                 (A") (A") (A") (A") (A') (A") (A') (A") (A') (A")
                 (A') (A") (A') (A') (A") (A') (A') (A") (A') (A")
                 (A') (A') (A") (A') (A") (A') (A") (A') (A') (A")
                 (A") (A') (A") (A") (A') (A") (A") (A") (A') (A")
                 (A') (A') (A") (A') (A") (A') (A") (A') (A") (A')
                 (A") (A") (A') (A") (A') (A") (A') (A') (A') (A")
                 (A') (A') (A") (A') (A') (A') (A') (A') (A') (A')
                 (A") (A") (A') (A") (A") (A') (A") (A') (A') (A')
                 (A') (A") (A') (A") (A') (A') (A') (A') (A') (A")
                 (A') (A") (A') (A') (A') (A') (A") (A') (A') (A')
                 (A') (A') (A') (A") (A') (A') (A') (A') (A') (A')
                 (A') (A')
 The electronic state of the initial guess is 1-A'.
 Requested convergence on RMS density matrix=1.00D-08 within 128 cycles.
 Requested convergence on MAX density matrix=1.00D-06.
 Requested convergence on             energy=1.00D-06.
 No special actions if energy rises.
 Integral accuracy reduced to 1.0D-05 until final iterations.
 Initial convergence to 1.0D-05 achieved.  Increase integral accuracy.
 SCF Done:  E(RB3LYP) =  -361.680556990     A.U. after   15 cycles
            NFock= 15  Conv=0.72D-08     -V/T= 2.0037

 **********************************************************************

            Population analysis using the SCF Density.

 **********************************************************************

 Orbital symmetries:
       Occupied  (A') (A') (A') (A') (A') (A') (A') (A') (A') (A')
                 (A') (A') (A') (A') (A') (A') (A') (A') (A') (A")
                 (A') (A') (A") (A') (A') (A") (A") (A')
       Virtual   (A") (A") (A") (A') (A') (A') (A') (A') (A') (A")
                 (A") (A') (A') (A') (A') (A") (A") (A') (A') (A')
                 (A") (A") (A') (A') (A') (A') (A') (A') (A') (A")
                 (A') (A') (A") (A') (A') (A') (A') (A') (A') (A")
                 (A') (A') (A') (A') (A') (A') (A') (A') (A') (A")
                 (A') (A') (A') (A') (A") (A") (A") (A') (A") (A')
                 (A') (A") (A') (A') (A') (A') (A") (A') (A') (A')
                 (A") (A') (A") (A") (A') (A') (A') (A") (A") (A")
                 (A') (A") (A") (A') (A") (A') (A') (A') (A') (A")
                 (A") (A') (A') (A") (A') (A") (A') (A") (A') (A")
                 (A') (A') (A") (A') (A') (A") (A') (A') (A') (A')
                 (A') (A") (A') (A') (A') (A") (A') (A') (A') (A')
                 (A') (A") (A") (A') (A') (A') (A') (A') (A') (A')
                 (A') (A') (A") (A') (A') (A') (A') (A') (A") (A')
                 (A") (A') (A") (A") (A") (A') (A") (A') (A') (A")
                 (A") (A') (A") (A') (A') (A') (A") (A') (A') (A")
                 (A') (A') (A') (A") (A') (A') (A') (A') (A") (A')
                 (A') (A") (A") (A") (A") (A') (A") (A') (A") (A')
                 (A') (A") (A') (A') (A") (A') (A') (A") (A') (A')
                 (A") (A') (A') (A") (A') (A") (A") (A') (A') (A")
                 (A") (A') (A") (A') (A") (A") (A') (A") (A") (A')
                 (A") (A") (A') (A') (A") (A') (A") (A') (A") (A')
                 (A") (A") (A') (A") (A') (A") (A') (A') (A") (A')
                 (A') (A") (A') (A') (A') (A') (A') (A') (A") (A')
                 (A") (A') (A") (A') (A') (A") (A") (A') (A') (A')
                 (A") (A') (A') (A") (A') (A') (A') (A') (A") (A')
                 (A') (A") (A') (A') (A') (A') (A") (A') (A') (A')
                 (A') (A') (A') (A") (A') (A') (A') (A') (A') (A')
                 (A') (A')
 The electronic state is 1-A'.
 Alpha  occ. eigenvalues --  -19.17567 -14.42870 -10.21967 -10.20833 -10.20620
 Alpha  occ. eigenvalues --  -10.20392 -10.20318 -10.20256  -1.15442  -0.89141
 Alpha  occ. eigenvalues --   -0.80844  -0.77710  -0.70574  -0.63628  -0.60109
 Alpha  occ. eigenvalues --   -0.54733  -0.50036  -0.49411  -0.46674  -0.46423
 Alpha  occ. eigenvalues --   -0.45242  -0.42124  -0.39239  -0.39227  -0.37081
 Alpha  occ. eigenvalues --   -0.28757  -0.28536  -0.23347
 Alpha virt. eigenvalues --   -0.11337  -0.03958  -0.00740   0.00829   0.03155
 Alpha virt. eigenvalues --    0.04417   0.06722   0.07394   0.10373   0.11994
 Alpha virt. eigenvalues --    0.14997   0.15338   0.15792   0.17331   0.18414
 Alpha virt. eigenvalues --    0.18504   0.19603   0.20565   0.22067   0.23418
 Alpha virt. eigenvalues --    0.26132   0.26567   0.26586   0.26885   0.27575
 Alpha virt. eigenvalues --    0.29157   0.29756   0.30951   0.31406   0.33440
 Alpha virt. eigenvalues --    0.33522   0.34142   0.34651   0.35892   0.36637
 Alpha virt. eigenvalues --    0.39612   0.40315   0.42196   0.43451   0.44317
 Alpha virt. eigenvalues --    0.44363   0.46036   0.51056   0.52550   0.54793
 Alpha virt. eigenvalues --    0.57592   0.59149   0.61810   0.61961   0.62178
 Alpha virt. eigenvalues --    0.63686   0.66247   0.67710   0.71651   0.74248
 Alpha virt. eigenvalues --    0.77063   0.77701   0.82259   0.82440   0.84065
 Alpha virt. eigenvalues --    0.86818   0.89212   0.96014   0.96639   0.98251
 Alpha virt. eigenvalues --    1.02796   1.02887   1.04643   1.05720   1.08396
 Alpha virt. eigenvalues --    1.08559   1.10843   1.10960   1.13659   1.13989
 Alpha virt. eigenvalues --    1.17861   1.18177   1.19256   1.23022   1.24717
 Alpha virt. eigenvalues --    1.25128   1.27266   1.27644   1.29649   1.30689
 Alpha virt. eigenvalues --    1.33956   1.37002   1.38715   1.42246   1.43319
 Alpha virt. eigenvalues --    1.44734   1.46018   1.50392   1.52179   1.54201
 Alpha virt. eigenvalues --    1.54920   1.58598   1.58598   1.59205   1.59425
 Alpha virt. eigenvalues --    1.61781   1.63384   1.64005   1.70529   1.71151
 Alpha virt. eigenvalues --    1.71556   1.73922   1.77331   1.79323   1.84938
 Alpha virt. eigenvalues --    1.87899   1.89146   1.90033   1.91554   1.92480
 Alpha virt. eigenvalues --    1.94048   1.95711   1.97001   1.99854   2.01683
 Alpha virt. eigenvalues --    2.05730   2.07026   2.10153   2.15763   2.16836
 Alpha virt. eigenvalues --    2.18455   2.20933   2.23597   2.26605   2.32226
 Alpha virt. eigenvalues --    2.43493   2.43792   2.45479   2.49457   2.59507
 Alpha virt. eigenvalues --    2.63857   2.69544   2.74995   2.82482   2.86935
 Alpha virt. eigenvalues --    2.89396   2.91486   3.12094   3.12766   3.16538
 Alpha virt. eigenvalues --    3.18014   3.18242   3.19826   3.20728   3.24310
 Alpha virt. eigenvalues --    3.29231   3.29239   3.30302   3.34712   3.42805
 Alpha virt. eigenvalues --    3.45648   3.52175   3.52226   3.53846   3.55000
 Alpha virt. eigenvalues --    3.56093   3.60841   3.63071   3.64327   3.66543
 Alpha virt. eigenvalues --    3.69617   3.78059   3.80298   3.80961   3.81888
 Alpha virt. eigenvalues --    3.83915   3.88252   3.93177   3.94563   3.97292
 Alpha virt. eigenvalues --    3.97327   3.99227   3.99944   4.01029   4.01642
 Alpha virt. eigenvalues --    4.03033   4.05421   4.05478   4.09668   4.10571
 Alpha virt. eigenvalues --    4.13154   4.14203   4.17461   4.19071   4.19600
 Alpha virt. eigenvalues --    4.20987   4.21131   4.24063   4.27347   4.27457
 Alpha virt. eigenvalues --    4.28060   4.30139   4.30339   4.32888   4.33081
 Alpha virt. eigenvalues --    4.33471   4.36155   4.38631   4.39371   4.40147
 Alpha virt. eigenvalues --    4.43109   4.45346   4.45957   4.46792   4.49916
 Alpha virt. eigenvalues --    4.50188   4.51812   4.52469   4.57144   4.57963
 Alpha virt. eigenvalues --    4.59681   4.63529   4.64296   4.69176   4.71694
 Alpha virt. eigenvalues --    4.73527   4.74211   4.75239   4.77442   4.82470
 Alpha virt. eigenvalues --    4.85979   4.87383   4.93023   4.94026   4.94437
 Alpha virt. eigenvalues --    4.99269   5.02046   5.02585   5.05760   5.10181
 Alpha virt. eigenvalues --    5.12506   5.14411   5.17687   5.21364   5.22537
 Alpha virt. eigenvalues --    5.23523   5.25620   5.29731   5.30184   5.35303
 Alpha virt. eigenvalues --    5.35427   5.36595   5.39711   5.45012   5.46620
 Alpha virt. eigenvalues --    5.48096   5.50455   5.53506   5.54886   5.60942
 Alpha virt. eigenvalues --    5.65766   5.68026   5.71763   5.72565   5.73769
 Alpha virt. eigenvalues --    5.82420   5.82536   5.88819   5.92611   5.97047
 Alpha virt. eigenvalues --    6.03407   6.04942   6.08333   6.17048   6.22486
 Alpha virt. eigenvalues --    6.27716   6.35641   6.43239   6.44664   6.48430
 Alpha virt. eigenvalues --    6.56975   6.63099   6.79235   7.07354   7.22895
 Alpha virt. eigenvalues --    9.19751  11.44898
          Condensed to atoms (all electrons):
               1          2          3          4          5          6
     1  C    5.679906  -0.039337   0.155123  -0.149105   0.134221   0.171909
     2  C   -0.039337   5.285460   0.280363   0.050999  -0.192422   0.144706
     3  C    0.155123   0.280363   5.002050   0.383069   0.050823  -0.158831
     4  C   -0.149105   0.050999   0.383069   4.878531   0.402209   0.019795
     5  C    0.134221  -0.192422   0.050823   0.402209   4.987063   0.334878
     6  C    0.171909   0.144706  -0.158831   0.019795   0.334878   5.042066
     7  N    0.275937  -0.020237   0.014286  -0.003727   0.003990  -0.051205
     8  O   -0.100807  -0.013091  -0.010632   0.002119  -0.003698   0.024133
     9  H   -0.133867   0.499878  -0.076547   0.021890  -0.014703   0.032961
    10  H    0.012418  -0.048548   0.459937  -0.054941   0.014663  -0.005682
    11  H   -0.009711   0.019667  -0.059166   0.459759  -0.059139   0.018278
    12  H    0.017996  -0.009892   0.017442  -0.057348   0.464620  -0.052507
    13  H   -0.130893   0.045751  -0.016080   0.022889  -0.080969   0.478814
               7          8          9         10         11         12
     1  C    0.275937  -0.100807  -0.133867   0.012418  -0.009711   0.017996
     2  C   -0.020237  -0.013091   0.499878  -0.048548   0.019667  -0.009892
     3  C    0.014286  -0.010632  -0.076547   0.459937  -0.059166   0.017442
     4  C   -0.003727   0.002119   0.021890  -0.054941   0.459759  -0.057348
     5  C    0.003990  -0.003698  -0.014703   0.014663  -0.059139   0.464620
     6  C   -0.051205   0.024133   0.032961  -0.005682   0.018278  -0.052507
     7  N    6.503594   0.205114  -0.012698   0.000014   0.000009  -0.000618
     8  O    0.205114   8.143816   0.041812  -0.000305   0.000031  -0.000004
     9  H   -0.012698   0.041812   0.599172  -0.009166   0.000574  -0.000211
    10  H    0.000014  -0.000305  -0.009166   0.608840  -0.009846   0.000021
    11  H    0.000009   0.000031   0.000574  -0.009846   0.613217  -0.010490
    12  H   -0.000618  -0.000004  -0.000211   0.000021  -0.010490   0.610909
    13  H    0.036979  -0.000389   0.002677  -0.000059   0.000516  -0.012169
              13
     1  C   -0.130893
     2  C    0.045751
     3  C   -0.016080
     4  C    0.022889
     5  C   -0.080969
     6  C    0.478814
     7  N    0.036979
     8  O   -0.000389
     9  H    0.002677
    10  H   -0.000059
    11  H    0.000516
    12  H   -0.012169
    13  H    0.616920
 Mulliken charges:
               1
     1  C    0.116211
     2  C   -0.003297
     3  C   -0.041836
     4  C    0.023861
     5  C   -0.041536
     6  C    0.000683
     7  N    0.048562
     8  O   -0.288096
     9  H    0.048229
    10  H    0.032655
    11  H    0.036302
    12  H    0.032250
    13  H    0.036013
 Sum of Mulliken charges =  -0.00000
 Mulliken charges with hydrogens summed into heavy atoms:
               1
     1  C    0.116211
     2  C    0.044932
     3  C   -0.009181
     4  C    0.060163
     5  C   -0.009286
     6  C    0.036697
     7  N    0.048562
     8  O   -0.288096
 Electronic spatial extent (au):  <R**2>=            892.4966
 Charge=             -0.0000 electrons
 Dipole moment (field-independent basis, Debye):
    X=              1.1913    Y=             -3.7284    Z=              0.0000  Tot=              3.9141
 Quadrupole moment (field-independent basis, Debye-Ang):
   XX=            -42.4701   YY=            -49.6152   ZZ=            -48.0967
   XY=              2.5371   XZ=              0.0000   YZ=              0.0000
 Traceless Quadrupole moment (field-independent basis, Debye-Ang):
   XX=              4.2572   YY=             -2.8879   ZZ=             -1.3693
   XY=              2.5371   XZ=              0.0000   YZ=              0.0000
 Octapole moment (field-independent basis, Debye-Ang**2):
  XXX=              2.1269  YYY=            -27.4135  ZZZ=              0.0000  XYY=              6.5679
  XXY=             -5.8008  XXZ=              0.0000  XZZ=             -3.7113  YZZ=              8.6014
  YYZ=              0.0000  XYZ=              0.0000
 Hexadecapole moment (field-independent basis, Debye-Ang**3):
 XXXX=           -355.8608 YYYY=           -762.4182 ZZZZ=            -53.9786 XXXY=             86.2953
 XXXZ=              0.0000 YYYX=             94.9635 YYYZ=              0.0000 ZZZX=              0.0000
 ZZZY=              0.0000 XXYY=           -189.6291 XXZZ=            -78.8056 YYZZ=           -136.4894
 XXYZ=              0.0000 YYXZ=              0.0000 ZZXY=             26.1652
 N-N= 3.244347410379D+02 E-N=-1.492111957805D+03  KE= 3.603592817449D+02
 Symmetry A'   KE= 3.497640396982D+02
 Symmetry A"   KE= 1.059524204676D+01
 Calling FoFJK, ICntrl=      2127 FMM=F ISym2X=1 I1Cent= 0 IOpClX= 0 NMat=1 NMatS=1 NMatT=0.
 ***** Axes restored to original set *****
 -------------------------------------------------------------------
 Center     Atomic                   Forces (Hartrees/Bohr)
 Number     Number              X              Y              Z
 -------------------------------------------------------------------
      1        6           0.000857970   -0.000964458   -0.000000000
      2        6           0.000800987    0.000156665   -0.000000000
      3        6           0.000778047    0.001259487   -0.000000000
      4        6           0.000061071    0.001149299   -0.000000000
      5        6          -0.001333747    0.000334290   -0.000000000
      6        6          -0.000776875   -0.000254223   -0.000000000
      7        7          -0.003474401   -0.002179288   -0.000000000
      8        8           0.003293195   -0.000055617   -0.000000000
      9        1           0.001129759   -0.001367328   -0.000000000
     10        1           0.001281280    0.001128547   -0.000000000
     11        1          -0.000340239    0.001667800   -0.000000000
     12        1          -0.001614845    0.000544996   -0.000000000
     13        1          -0.000662203   -0.001420171   -0.000000000
 -------------------------------------------------------------------
 Cartesian Forces:  Max     0.003474401 RMS     0.001136743

 GradGradGradGradGradGradGradGradGradGradGradGradGradGradGradGradGradGrad
 Berny optimization.
 FormGI is forming the generalized inverse of G from B-inverse, IUseBI=4.
 Internal  Forces:  Max     0.003166795 RMS     0.001197722
 Search for a local minimum.
 Step number   1 out of a maximum of   68
 All quantities printed in internal units (Hartrees-Bohrs-Radians)
 Mixed Optimization -- RFO/linear search
 Second derivative matrix not updated -- first step.
 ITU=  0
     Eigenvalues ---    0.01121   0.01952   0.02119   0.02127   0.02160
     Eigenvalues ---    0.02173   0.02180   0.02187   0.02189   0.02215
     Eigenvalues ---    0.16000   0.16000   0.16000   0.16000   0.16000
     Eigenvalues ---    0.22000   0.22000   0.23490   0.25000   0.25000
     Eigenvalues ---    0.35484   0.35518   0.35539   0.35572   0.35644
     Eigenvalues ---    0.39157   0.41911   0.42570   0.45955   0.46182
     Eigenvalues ---    0.46740   0.47658   0.98477
 RFO step:  Lambda=-1.98036115D-04 EMin= 1.12100448D-02
 Linear search not attempted -- first point.
 Iteration  1 RMS(Cart)=  0.00506480 RMS(Int)=  0.00001659
 Iteration  2 RMS(Cart)=  0.00001603 RMS(Int)=  0.00000024
 Iteration  3 RMS(Cart)=  0.00000000 RMS(Int)=  0.00000024
 ClnCor:  largest displacement from symmetrization is 3.19D-12 for atom     7.
 Variable       Old X    -DE/DX   Delta X   Delta X   Delta X     New X
                                 (Linear)    (Quad)   (Total)
    R1        2.64393  -0.00226   0.00000  -0.00485  -0.00485   2.63908
    R2        2.63589  -0.00232   0.00000  -0.00491  -0.00491   2.63099
    R3        2.72716  -0.00219   0.00000  -0.00559  -0.00559   2.72156
    R4        2.61941  -0.00317   0.00000  -0.00659  -0.00659   2.61282
    R5        2.04642  -0.00153   0.00000  -0.00429  -0.00429   2.04212
    R6        2.64582  -0.00274   0.00000  -0.00609  -0.00609   2.63973
    R7        2.04841  -0.00171   0.00000  -0.00480  -0.00480   2.04361
    R8        2.63417  -0.00316   0.00000  -0.00686  -0.00686   2.62731
    R9        2.04896  -0.00170   0.00000  -0.00479  -0.00479   2.04417
   R10        2.62946  -0.00303   0.00000  -0.00643  -0.00643   2.62303
   R11        2.04757  -0.00170   0.00000  -0.00479  -0.00479   2.04278
   R12        2.04809  -0.00146   0.00000  -0.00411  -0.00411   2.04398
   R13        2.29255  -0.00316   0.00000  -0.00320  -0.00320   2.28935
    A1        2.11369   0.00019   0.00000   0.00110   0.00110   2.11479
    A2        2.15735   0.00035   0.00000   0.00122   0.00122   2.15857
    A3        2.01214  -0.00054   0.00000  -0.00232  -0.00232   2.00982
    A4        2.07870  -0.00046   0.00000  -0.00187  -0.00187   2.07683
    A5        2.07048   0.00114   0.00000   0.00664   0.00664   2.07712
    A6        2.13400  -0.00068   0.00000  -0.00477  -0.00477   2.12923
    A7        2.09489   0.00030   0.00000   0.00122   0.00122   2.09611
    A8        2.09662  -0.00012   0.00000  -0.00045  -0.00046   2.09616
    A9        2.09168  -0.00017   0.00000  -0.00077  -0.00077   2.09091
   A10        2.10567   0.00009   0.00000   0.00009   0.00009   2.10576
   A11        2.08753  -0.00004   0.00000  -0.00003  -0.00003   2.08751
   A12        2.08999  -0.00005   0.00000  -0.00007  -0.00007   2.08992
   A13        2.08657   0.00009   0.00000   0.00025   0.00025   2.08682
   A14        2.09738  -0.00004   0.00000  -0.00009  -0.00009   2.09729
   A15        2.09923  -0.00005   0.00000  -0.00016  -0.00016   2.09907
   A16        2.08685  -0.00022   0.00000  -0.00080  -0.00080   2.08605
   A17        2.06586   0.00069   0.00000   0.00401   0.00401   2.06987
   A18        2.13047  -0.00047   0.00000  -0.00321  -0.00321   2.12726
   A19        2.01176   0.00217   0.00000   0.00868   0.00868   2.02044
    D1        0.00000  -0.00000   0.00000  -0.00000   0.00000   0.00000
    D2        3.14159   0.00000   0.00000  -0.00000   0.00000   3.14159
    D3        3.14159  -0.00000   0.00000  -0.00000   0.00000   3.14159
    D4        0.00000  -0.00000   0.00000  -0.00000   0.00000   0.00000
    D5        0.00000   0.00000   0.00000   0.00000   0.00000   0.00000
    D6        3.14159   0.00000   0.00000   0.00000   0.00000   3.14159
    D7        3.14159   0.00000   0.00000   0.00000   0.00000   3.14159
    D8        0.00000   0.00000   0.00000   0.00000   0.00000   0.00000
    D9        0.00000   0.00000   0.00000   0.00000   0.00000   0.00000
   D10        3.14159   0.00000   0.00000   0.00000   0.00000   3.14159
   D11        0.00000   0.00000   0.00000  -0.00000   0.00000   0.00000
   D12        3.14159   0.00000   0.00000   0.00000   0.00000   3.14159
   D13        3.14159   0.00000   0.00000  -0.00000   0.00000   3.14159
   D14        0.00000   0.00000   0.00000   0.00000   0.00000   0.00000
   D15        0.00000   0.00000   0.00000   0.00000   0.00000   0.00000
   D16        3.14159  -0.00000   0.00000   0.00000   0.00000   3.14159
   D17        3.14159  -0.00000   0.00000  -0.00000   0.00000   3.14159
   D18        0.00000  -0.00000   0.00000  -0.00000   0.00000   0.00000
   D19        0.00000   0.00000   0.00000   0.00000   0.00000   0.00000
   D20        3.14159   0.00000   0.00000   0.00000   0.00000   3.14159
   D21        3.14159  -0.00000   0.00000  -0.00000   0.00000   3.14159
   D22        0.00000  -0.00000   0.00000   0.00000   0.00000   0.00000
   D23        0.00000  -0.00000   0.00000  -0.00000   0.00000   0.00000
   D24        3.14159  -0.00000   0.00000  -0.00000   0.00000   3.14159
   D25        3.14159  -0.00000   0.00000  -0.00000   0.00000   3.14159
   D26        0.00000  -0.00000   0.00000  -0.00000   0.00000   0.00000
         Item               Value     Threshold  Converged?
 Maximum Force            0.003167     0.000450     NO 
 RMS     Force            0.001198     0.000300     NO 
 Maximum Displacement     0.016831     0.001800     NO 
 RMS     Displacement     0.005066     0.001200     NO 
 Predicted change in Energy=-9.907243D-05
 GradGradGradGradGradGradGradGradGradGradGradGradGradGradGradGradGradGrad

                          Input orientation:                          
 ---------------------------------------------------------------------
 Center     Atomic      Atomic             Coordinates (Angstroms)
 Number     Number       Type             X           Y           Z
 ---------------------------------------------------------------------
      1          6           0       -0.001016    0.593326    0.000000
      2          6           0       -1.051786   -0.326570    0.000000
      3          6           0       -0.759439   -1.677953    0.000000
      4          6           0        0.569894   -2.107097    0.000000
      5          6           0        1.611860   -1.186622    0.000000
      6          6           0        1.325845    0.171637    0.000000
      7          7           0       -0.189589    2.021117    0.000000
      8          8           0       -1.340192    2.400286    0.000000
      9          1           0       -2.068612    0.039293    0.000000
     10          1           0       -1.559198   -2.405882    0.000000
     11          1           0        0.789511   -3.166295    0.000000
     12          1           0        2.637727   -1.527417    0.000000
     13          1           0        2.106854    0.919929    0.000000
 ---------------------------------------------------------------------
                    Distance matrix (angstroms):
                    1          2          3          4          5
     1  C    0.000000
     2  C    1.396541   0.000000
     3  C    2.394558   1.382643   0.000000
     4  C    2.760113   2.408344   1.396886   0.000000
     5  C    2.401996   2.799053   2.421665   1.390312   0.000000
     6  C    1.392258   2.429267   2.787362   2.400852   1.388046
     7  N    1.440190   2.501004   3.742705   4.197495   3.678968
     8  O    2.249111   2.742066   4.119382   4.895399   4.645484
     9  H    2.140539   1.080644   2.159368   3.401280   3.879271
    10  H    3.379819   2.140328   1.081432   2.149954   3.397381
    11  H    3.841833   3.384436   2.148117   1.081726   2.143679
    12  H    3.385338   3.880018   3.400500   2.147548   1.080992
    13  H    2.133023   3.395699   3.868414   3.394869   2.163927
                    6          7          8          9         10
     6  C    0.000000
     7  N    2.391049   0.000000
     8  O    3.474857   1.211469   0.000000
     9  H    3.397036   2.730998   2.470806   0.000000
    10  H    3.868730   4.634021   4.811156   2.497676   0.000000
    11  H    3.380746   5.279003   5.960072   4.294725   2.468736
    12  H    2.146583   4.537158   5.590232   4.960263   4.287876
    13  H    1.081627   2.546814   3.751478   4.267322   4.949844
                   11         12         13
    11  H    0.000000
    12  H    2.470187   0.000000
    13  H    4.293323   2.504262   0.000000
 Stoichiometry    C6H5NO
 Framework group  CS[SG(C6H5NO)]
 Deg. of freedom    23
 Full point group                 CS      NOp   2
 Largest Abelian subgroup         CS      NOp   2
 Largest concise Abelian subgroup C1      NOp   1
                         Standard orientation:                         
 ---------------------------------------------------------------------
 Center     Atomic      Atomic             Coordinates (Angstroms)
 Number     Number       Type             X           Y           Z
 ---------------------------------------------------------------------
      1          6           0       -0.000000    0.593148    0.000000
      2          6           0       -1.053167   -0.324003    0.000000
      3          6           0       -0.764346   -1.676143    0.000000
      4          6           0        0.563862   -2.108755    0.000000
      5          6           0        1.608226   -1.191002    0.000000
      6          6           0        1.325756    0.167999    0.000000
      7          7           0       -0.184847    2.021426    0.000000
      8          8           0       -1.334457    2.403597    0.000000
      9          1           0       -2.069035    0.044512    0.000000
     10          1           0       -1.566002   -2.401984    0.000000
     11          1           0        0.780715   -3.168522    0.000000
     12          1           0        2.633201   -1.534472    0.000000
     13          1           0        2.108715    0.914251    0.000000
 ---------------------------------------------------------------------
 Rotational constants (GHZ):           5.2994340           1.6459413           1.2558799
 Basis read from rwf:  (5D, 7F)
 There are   247 symmetry adapted cartesian basis functions of A'  symmetry.
 There are   108 symmetry adapted cartesian basis functions of A"  symmetry.
 There are   210 symmetry adapted basis functions of A'  symmetry.
 There are   100 symmetry adapted basis functions of A"  symmetry.
   310 basis functions,   498 primitive gaussians,   355 cartesian basis functions
    28 alpha electrons       28 beta electrons
       nuclear repulsion energy       325.0003023735 Hartrees.
 NAtoms=   13 NActive=   13 NUniq=   13 SFac= 1.00D+00 NAtFMM=   60 NAOKFM=F Big=F
 Integral buffers will be    131072 words long.
 Raffenetti 2 integral format.
 Two-electron integral symmetry is turned on.
 One-electron integrals computed using PRISM.
 NBasis=   310 RedAO= T EigKep=  2.18D-05  NBF=   210   100
 NBsUse=   310 1.00D-06 EigRej= -1.00D+00 NBFU=   210   100
 Initial guess from the checkpoint file:  "/wrk/irikura/Gau-8580.chk"
 B after Tr=    -0.000000   -0.000000    0.000000
         Rot=    0.999999    0.000000   -0.000000    0.001643 Ang=   0.19 deg.
 Initial guess orbital symmetries:
       Occupied  (A') (A') (A') (A') (A') (A') (A') (A') (A') (A')
                 (A') (A') (A') (A') (A') (A') (A') (A') (A') (A")
                 (A') (A') (A") (A') (A') (A") (A") (A')
       Virtual   (A") (A") (A") (A') (A') (A') (A') (A') (A') (A")
                 (A") (A') (A') (A') (A') (A") (A") (A') (A') (A')
                 (A") (A") (A') (A') (A') (A') (A') (A') (A') (A")
                 (A') (A') (A") (A') (A') (A') (A') (A') (A') (A")
                 (A') (A') (A') (A') (A') (A') (A') (A') (A') (A")
                 (A') (A') (A') (A') (A") (A") (A") (A') (A") (A')
                 (A') (A") (A') (A') (A') (A') (A") (A') (A') (A')
                 (A") (A') (A") (A") (A') (A') (A') (A") (A") (A")
                 (A') (A") (A") (A') (A") (A') (A') (A') (A') (A")
                 (A") (A') (A') (A") (A') (A") (A') (A") (A') (A")
                 (A') (A') (A") (A') (A') (A") (A') (A') (A') (A')
                 (A') (A") (A') (A') (A') (A") (A') (A') (A') (A')
                 (A') (A") (A") (A') (A') (A') (A') (A') (A') (A')
                 (A') (A') (A") (A') (A') (A') (A') (A') (A") (A')
                 (A") (A') (A") (A") (A") (A') (A") (A') (A') (A")
                 (A") (A') (A") (A') (A') (A') (A") (A') (A') (A")
                 (A') (A') (A') (A") (A') (A') (A') (A') (A") (A')
                 (A') (A") (A") (A") (A") (A') (A") (A') (A") (A')
                 (A') (A") (A') (A') (A") (A') (A') (A") (A') (A')
                 (A") (A') (A') (A") (A') (A") (A") (A') (A') (A")
                 (A") (A') (A") (A') (A") (A") (A') (A") (A") (A')
                 (A") (A") (A') (A') (A") (A') (A") (A') (A") (A')
                 (A") (A") (A') (A") (A') (A") (A') (A') (A") (A')
                 (A') (A") (A') (A') (A') (A') (A') (A') (A") (A')
                 (A") (A') (A") (A') (A') (A") (A") (A') (A') (A')
                 (A") (A') (A') (A") (A') (A') (A') (A') (A") (A')
                 (A') (A") (A') (A') (A') (A') (A") (A') (A') (A')
                 (A') (A') (A') (A") (A') (A') (A') (A') (A') (A')
                 (A') (A')
 Requested convergence on RMS density matrix=1.00D-08 within 128 cycles.
 Requested convergence on MAX density matrix=1.00D-06.
 Requested convergence on             energy=1.00D-06.
 No special actions if energy rises.
 SCF Done:  E(RB3LYP) =  -361.680649590     A.U. after    9 cycles
            NFock=  9  Conv=0.90D-08     -V/T= 2.0035
 Calling FoFJK, ICntrl=      2127 FMM=F ISym2X=1 I1Cent= 0 IOpClX= 0 NMat=1 NMatS=1 NMatT=0.
 ***** Axes restored to original set *****
 -------------------------------------------------------------------
 Center     Atomic                   Forces (Hartrees/Bohr)
 Number     Number              X              Y              Z
 -------------------------------------------------------------------
      1        6          -0.000578325    0.000869630   -0.000000000
      2        6          -0.000026804    0.000511509   -0.000000000
      3        6          -0.000165580   -0.000228428   -0.000000000
      4        6           0.000081441   -0.000321036   -0.000000000
      5        6           0.000143740   -0.000162613   -0.000000000
      6        6           0.000031961    0.000424824   -0.000000000
      7        7          -0.000135119    0.000115840   -0.000000000
      8        8           0.000711915   -0.000798835   -0.000000000
      9        1          -0.000109664   -0.000186443   -0.000000000
     10        1          -0.000059098   -0.000088795   -0.000000000
     11        1          -0.000007573   -0.000078395   -0.000000000
     12        1           0.000084093   -0.000012465   -0.000000000
     13        1           0.000029013   -0.000044793   -0.000000000
 -------------------------------------------------------------------
 Cartesian Forces:  Max     0.000869630 RMS     0.000278368

 GradGradGradGradGradGradGradGradGradGradGradGradGradGradGradGradGradGrad
 Berny optimization.
 Using GEDIIS/GDIIS optimizer.
 FormGI is forming the generalized inverse of G from B-inverse, IUseBI=4.
 Internal  Forces:  Max     0.001223897 RMS     0.000252033
 Search for a local minimum.
 Step number   2 out of a maximum of   68
 All quantities printed in internal units (Hartrees-Bohrs-Radians)
 Mixed Optimization -- En-DIIS/RFO-DIIS
 Update second derivatives using D2CorX and points    1    2
 DE= -9.26D-05 DEPred=-9.91D-05 R= 9.35D-01
 TightC=F SS=  1.41D+00  RLast= 2.34D-02 DXNew= 5.0454D-01 7.0073D-02
 Trust test= 9.35D-01 RLast= 2.34D-02 DXMaxT set to 3.00D-01
 ITU=  1  0
 Use linear search instead of GDIIS.
     Eigenvalues ---    0.01121   0.01952   0.02119   0.02127   0.02159
     Eigenvalues ---    0.02173   0.02180   0.02187   0.02189   0.02215
     Eigenvalues ---    0.15392   0.16000   0.16000   0.16000   0.16009
     Eigenvalues ---    0.21953   0.22006   0.23500   0.24902   0.26802
     Eigenvalues ---    0.35167   0.35496   0.35546   0.35607   0.35625
     Eigenvalues ---    0.37893   0.41926   0.42559   0.46135   0.46571
     Eigenvalues ---    0.46715   0.52210   0.96115
 RFO step:  Lambda=-8.46067708D-06 EMin= 1.12100448D-02
 Quartic linear search produced a step of -0.06128.
 Iteration  1 RMS(Cart)=  0.00126486 RMS(Int)=  0.00000219
 Iteration  2 RMS(Cart)=  0.00000194 RMS(Int)=  0.00000001
 Iteration  3 RMS(Cart)=  0.00000000 RMS(Int)=  0.00000001
 ClnCor:  largest displacement from symmetrization is 6.36D-13 for atom     7.
 Variable       Old X    -DE/DX   Delta X   Delta X   Delta X     New X
                                 (Linear)    (Quad)   (Total)
    R1        2.63908   0.00020   0.00030  -0.00010   0.00020   2.63928
    R2        2.63099   0.00016   0.00030  -0.00020   0.00010   2.63109
    R3        2.72156  -0.00075   0.00034  -0.00239  -0.00204   2.71952
    R4        2.61282   0.00045   0.00040   0.00019   0.00059   2.61341
    R5        2.04212   0.00004   0.00026  -0.00034  -0.00008   2.04204
    R6        2.63973   0.00024   0.00037  -0.00012   0.00026   2.63999
    R7        2.04361   0.00010   0.00029  -0.00023   0.00007   2.04368
    R8        2.62731   0.00027   0.00042  -0.00015   0.00027   2.62758
    R9        2.04417   0.00008   0.00029  -0.00030  -0.00001   2.04416
   R10        2.62303   0.00044   0.00039   0.00021   0.00060   2.62363
   R11        2.04278   0.00008   0.00029  -0.00028   0.00002   2.04280
   R12        2.04398  -0.00001   0.00025  -0.00046  -0.00020   2.04378
   R13        2.28935  -0.00093   0.00020  -0.00122  -0.00102   2.28832
    A1        2.11479  -0.00006  -0.00007  -0.00014  -0.00021   2.11459
    A2        2.15857   0.00008  -0.00007   0.00044   0.00036   2.15893
    A3        2.00982  -0.00002   0.00014  -0.00030  -0.00016   2.00967
    A4        2.07683   0.00006   0.00011   0.00002   0.00014   2.07697
    A5        2.07712   0.00019  -0.00041   0.00185   0.00144   2.07856
    A6        2.12923  -0.00024   0.00029  -0.00187  -0.00158   2.12765
    A7        2.09611   0.00002  -0.00007   0.00024   0.00016   2.09628
    A8        2.09616   0.00001   0.00003   0.00004   0.00007   2.09623
    A9        2.09091  -0.00004   0.00005  -0.00028  -0.00024   2.09068
   A10        2.10576  -0.00011  -0.00001  -0.00041  -0.00041   2.10535
   A11        2.08751   0.00003   0.00000   0.00006   0.00006   2.08757
   A12        2.08992   0.00008   0.00000   0.00035   0.00035   2.09027
   A13        2.08682   0.00006  -0.00002   0.00029   0.00028   2.08710
   A14        2.09729  -0.00002   0.00001  -0.00006  -0.00006   2.09724
   A15        2.09907  -0.00004   0.00001  -0.00023  -0.00022   2.09885
   A16        2.08605   0.00003   0.00005  -0.00001   0.00004   2.08609
   A17        2.06987   0.00004  -0.00025   0.00070   0.00046   2.07033
   A18        2.12726  -0.00007   0.00020  -0.00069  -0.00050   2.12676
   A19        2.02044  -0.00122  -0.00053  -0.00369  -0.00422   2.01622
    D1        0.00000  -0.00000   0.00000   0.00000   0.00000   0.00000
    D2        3.14159   0.00000   0.00000   0.00000   0.00000   3.14159
    D3        3.14159   0.00000   0.00000   0.00000   0.00000   3.14159
    D4        0.00000  -0.00000   0.00000   0.00000   0.00000   0.00000
    D5        0.00000  -0.00000   0.00000   0.00000   0.00000   0.00000
    D6        3.14159   0.00000   0.00000   0.00000   0.00000   3.14159
    D7        3.14159  -0.00000   0.00000   0.00000   0.00000   3.14159
    D8        0.00000  -0.00000   0.00000   0.00000   0.00000   0.00000
    D9        0.00000  -0.00000   0.00000   0.00000   0.00000   0.00000
   D10        3.14159  -0.00000   0.00000   0.00000   0.00000   3.14159
   D11        0.00000  -0.00000   0.00000  -0.00000   0.00000   0.00000
   D12        3.14159  -0.00000   0.00000   0.00000   0.00000   3.14159
   D13        3.14159  -0.00000   0.00000  -0.00000   0.00000   3.14159
   D14        0.00000  -0.00000   0.00000   0.00000   0.00000   0.00000
   D15        0.00000  -0.00000   0.00000  -0.00000   0.00000   0.00000
   D16        3.14159   0.00000   0.00000   0.00000   0.00000   3.14159
   D17        3.14159  -0.00000   0.00000  -0.00000   0.00000   3.14159
   D18        0.00000  -0.00000   0.00000   0.00000   0.00000   0.00000
   D19        0.00000   0.00000   0.00000   0.00000   0.00000   0.00000
   D20        3.14159  -0.00000   0.00000   0.00000   0.00000   3.14159
   D21        3.14159  -0.00000   0.00000  -0.00000   0.00000   3.14159
   D22        0.00000  -0.00000   0.00000  -0.00000   0.00000   0.00000
   D23        0.00000   0.00000   0.00000  -0.00000   0.00000   0.00000
   D24        3.14159  -0.00000   0.00000  -0.00000   0.00000   3.14159
   D25        3.14159   0.00000   0.00000  -0.00000   0.00000   3.14159
   D26        0.00000  -0.00000   0.00000  -0.00000   0.00000   0.00000
         Item               Value     Threshold  Converged?
 Maximum Force            0.001224     0.000450     NO 
 RMS     Force            0.000252     0.000300     YES
 Maximum Displacement     0.008494     0.001800     NO 
 RMS     Displacement     0.001265     0.001200     NO 
 Predicted change in Energy=-4.626984D-06
 GradGradGradGradGradGradGradGradGradGradGradGradGradGradGradGradGradGrad

                          Input orientation:                          
 ---------------------------------------------------------------------
 Center     Atomic      Atomic             Coordinates (Angstroms)
 Number     Number       Type             X           Y           Z
 ---------------------------------------------------------------------
      1          6           0       -0.000832    0.594354    0.000000
      2          6           0       -1.051745   -0.325537    0.000000
      3          6           0       -0.759611   -1.677286    0.000000
      4          6           0        0.569691   -2.106967    0.000000
      5          6           0        1.611725   -1.186356    0.000000
      6          6           0        1.325963    0.172283    0.000000
      7          7           0       -0.188648    2.021154    0.000000
      8          8           0       -1.340167    2.395791    0.000000
      9          1           0       -2.069033    0.038917    0.000000
     10          1           0       -1.559496   -2.405132    0.000000
     11          1           0        0.788975   -3.166230    0.000000
     12          1           0        2.637594   -1.527169    0.000000
     13          1           0        2.107442    0.919929    0.000000
 ---------------------------------------------------------------------
                    Distance matrix (angstroms):
                    1          2          3          4          5
     1  C    0.000000
     2  C    1.396645   0.000000
     3  C    2.395014   1.382956   0.000000
     4  C    2.760911   2.408847   1.397021   0.000000
     5  C    2.402346   2.799121   2.421621   1.390453   0.000000
     6  C    1.392311   2.429263   2.787567   2.401443   1.388366
     7  N    1.439109   2.500379   3.742254   4.197196   3.678242
     8  O    2.244771   2.736570   4.114244   4.891051   4.641707
     9  H    2.141487   1.080603   2.158689   3.401129   3.879339
    10  H    3.380288   2.140683   1.081468   2.149962   3.397360
    11  H    3.842627   3.384934   2.148271   1.081723   2.144019
    12  H    3.385580   3.880096   3.400521   2.147648   1.081001
    13  H    2.133265   3.395828   3.868530   3.395111   2.163833
                    6          7          8          9         10
     6  C    0.000000
     7  N    2.390056   0.000000
     8  O    3.471633   1.210929   0.000000
     9  H    3.397614   2.732236   2.467003   0.000000
    10  H    3.868971   4.633706   4.805930   2.496598   0.000000
    11  H    3.381424   5.278702   5.955612   4.294318   2.468721
    12  H    2.146745   4.536325   5.586788   4.960339   4.287934
    13  H    1.081520   2.546513   3.750224   4.268387   4.949996
                   11         12         13
    11  H    0.000000
    12  H    2.470610   0.000000
    13  H    4.293606   2.503867   0.000000
 Stoichiometry    C6H5NO
 Framework group  CS[SG(C6H5NO)]
 Deg. of freedom    23
 Full point group                 CS      NOp   2
 Largest Abelian subgroup         CS      NOp   2
 Largest concise Abelian subgroup C1      NOp   1
                         Standard orientation:                         
 ---------------------------------------------------------------------
 Center     Atomic      Atomic             Coordinates (Angstroms)
 Number     Number       Type             X           Y           Z
 ---------------------------------------------------------------------
      1          6           0        0.000000    0.594397    0.000000
      2          6           0       -1.053158   -0.322923    0.000000
      3          6           0       -0.764328   -1.675382    0.000000
      4          6           0        0.563919   -2.108309    0.000000
      5          6           0        1.608200   -1.190248    0.000000
      6          6           0        1.325760    0.169085    0.000000
      7          7           0       -0.184328    2.021652    0.000000
      8          8           0       -1.334929    2.399102    0.000000
      9          1           0       -2.069552    0.044016    0.000000
     10          1           0       -1.565989   -2.401270    0.000000
     11          1           0        0.780614   -3.168105    0.000000
     12          1           0        2.633234   -1.533568    0.000000
     13          1           0        2.109064    0.914819    0.000000
 ---------------------------------------------------------------------
 Rotational constants (GHZ):           5.2973301           1.6481879           1.2570690
 Basis read from rwf:  (5D, 7F)
 There are   247 symmetry adapted cartesian basis functions of A'  symmetry.
 There are   108 symmetry adapted cartesian basis functions of A"  symmetry.
 There are   210 symmetry adapted basis functions of A'  symmetry.
 There are   100 symmetry adapted basis functions of A"  symmetry.
   310 basis functions,   498 primitive gaussians,   355 cartesian basis functions
    28 alpha electrons       28 beta electrons
       nuclear repulsion energy       325.0788947620 Hartrees.
 NAtoms=   13 NActive=   13 NUniq=   13 SFac= 1.00D+00 NAtFMM=   60 NAOKFM=F Big=F
 Integral buffers will be    131072 words long.
 Raffenetti 2 integral format.
 Two-electron integral symmetry is turned on.
 One-electron integrals computed using PRISM.
 NBasis=   310 RedAO= T EigKep=  2.18D-05  NBF=   210   100
 NBsUse=   310 1.00D-06 EigRej= -1.00D+00 NBFU=   210   100
 Initial guess from the checkpoint file:  "/wrk/irikura/Gau-8580.chk"
 B after Tr=    -0.000000   -0.000000    0.000000
         Rot=    1.000000   -0.000000   -0.000000   -0.000138 Ang=  -0.02 deg.
 Initial guess orbital symmetries:
       Occupied  (A') (A') (A') (A') (A') (A') (A') (A') (A') (A')
                 (A') (A') (A') (A') (A') (A') (A') (A') (A') (A")
                 (A') (A') (A") (A') (A') (A") (A") (A')
       Virtual   (A") (A") (A") (A') (A') (A') (A') (A') (A') (A")
                 (A") (A') (A') (A') (A") (A') (A") (A') (A') (A')
                 (A") (A") (A') (A') (A') (A') (A') (A') (A') (A")
                 (A') (A') (A") (A') (A') (A') (A') (A') (A') (A")
                 (A') (A') (A') (A') (A') (A') (A') (A') (A") (A')
                 (A') (A') (A') (A') (A") (A") (A") (A') (A") (A')
                 (A') (A") (A') (A') (A') (A') (A") (A') (A') (A')
                 (A") (A') (A") (A") (A') (A') (A') (A") (A") (A")
                 (A') (A") (A") (A') (A") (A') (A') (A') (A') (A")
                 (A") (A') (A') (A") (A') (A") (A') (A") (A') (A")
                 (A') (A') (A") (A') (A') (A") (A') (A') (A') (A')
                 (A') (A") (A') (A') (A') (A") (A') (A') (A') (A')
                 (A') (A") (A") (A') (A') (A') (A') (A') (A') (A')
                 (A') (A') (A") (A') (A') (A') (A') (A') (A") (A')
                 (A") (A') (A") (A") (A") (A") (A') (A') (A') (A")
                 (A") (A') (A") (A') (A') (A') (A") (A') (A') (A")
                 (A') (A') (A') (A") (A') (A') (A') (A') (A") (A')
                 (A') (A") (A") (A") (A") (A') (A") (A') (A") (A')
                 (A') (A") (A') (A') (A") (A') (A') (A") (A') (A')
                 (A') (A") (A') (A") (A') (A") (A") (A') (A") (A')
                 (A") (A') (A") (A') (A") (A") (A') (A") (A") (A')
                 (A") (A") (A') (A') (A") (A') (A") (A') (A") (A')
                 (A") (A") (A') (A") (A') (A") (A') (A') (A") (A')
                 (A') (A") (A') (A') (A') (A') (A') (A') (A") (A')
                 (A") (A') (A") (A') (A') (A") (A") (A') (A') (A')
                 (A") (A') (A') (A") (A') (A') (A') (A') (A") (A')
                 (A') (A") (A') (A') (A') (A') (A") (A') (A') (A')
                 (A') (A') (A') (A") (A') (A') (A') (A') (A') (A')
                 (A') (A')
 Requested convergence on RMS density matrix=1.00D-08 within 128 cycles.
 Requested convergence on MAX density matrix=1.00D-06.
 Requested convergence on             energy=1.00D-06.
 No special actions if energy rises.
 SCF Done:  E(RB3LYP) =  -361.680652154     A.U. after    9 cycles
            NFock=  9  Conv=0.30D-08     -V/T= 2.0034
 Calling FoFJK, ICntrl=      2127 FMM=F ISym2X=1 I1Cent= 0 IOpClX= 0 NMat=1 NMatS=1 NMatT=0.
 ***** Axes restored to original set *****
 -------------------------------------------------------------------
 Center     Atomic                   Forces (Hartrees/Bohr)
 Number     Number              X              Y              Z
 -------------------------------------------------------------------
      1        6           0.000263333    0.000177574   -0.000000000
      2        6          -0.000018519    0.000081350   -0.000000000
      3        6          -0.000035971   -0.000027513   -0.000000000
      4        6           0.000064540   -0.000081406   -0.000000000
      5        6           0.000077024   -0.000073243   -0.000000000
      6        6          -0.000006645   -0.000073383   -0.000000000
      7        7          -0.000181358   -0.000348831   -0.000000000
      8        8          -0.000201191    0.000498367   -0.000000000
[...]
   A16        2.08644   0.00002   0.00000   0.00012   0.00012   2.08656
   A17        2.07025  -0.00001   0.00000  -0.00004  -0.00004   2.07021
   A18        2.12650  -0.00001   0.00000  -0.00008  -0.00008   2.12642
   A19        2.01816  -0.00000   0.00000  -0.00001  -0.00001   2.01815
    D1        0.00000  -0.00000   0.00000   0.00000   0.00000   0.00000
    D2        3.14159   0.00000   0.00000   0.00000   0.00000   3.14159
    D3        3.14159   0.00000   0.00000   0.00000   0.00000   3.14159
    D4        0.00000   0.00000   0.00000   0.00000   0.00000   0.00000
    D5        0.00000  -0.00000   0.00000  -0.00000   0.00000   0.00000
    D6        3.14159  -0.00000   0.00000  -0.00000   0.00000   3.14159
    D7        3.14159   0.00000   0.00000  -0.00000   0.00000   3.14159
    D8        0.00000   0.00000   0.00000  -0.00000   0.00000   0.00000
    D9        0.00000  -0.00000   0.00000  -0.00000   0.00000   0.00000
   D10        3.14159  -0.00000   0.00000  -0.00000   0.00000   3.14159
   D11        0.00000  -0.00000   0.00000  -0.00000   0.00000   0.00000
   D12        3.14159  -0.00000   0.00000  -0.00000   0.00000   3.14159
   D13        3.14159   0.00000   0.00000  -0.00000   0.00000   3.14159
   D14        0.00000   0.00000   0.00000  -0.00000   0.00000   0.00000
   D15        0.00000  -0.00000   0.00000  -0.00000   0.00000   0.00000
   D16        3.14159  -0.00000   0.00000   0.00000   0.00000   3.14159
   D17        3.14159  -0.00000   0.00000  -0.00000   0.00000   3.14159
   D18        0.00000  -0.00000   0.00000   0.00000   0.00000   0.00000
   D19        0.00000   0.00000   0.00000   0.00000   0.00000   0.00000
   D20        3.14159   0.00000   0.00000   0.00000   0.00000   3.14159
   D21        3.14159   0.00000   0.00000  -0.00000   0.00000   3.14159
   D22        0.00000   0.00000   0.00000  -0.00000   0.00000   0.00000
   D23        0.00000   0.00000   0.00000  -0.00000   0.00000   0.00000
   D24        3.14159   0.00000   0.00000  -0.00000   0.00000   3.14159
   D25        3.14159   0.00000   0.00000   0.00000   0.00000   3.14159
   D26        0.00000   0.00000   0.00000   0.00000   0.00000   0.00000
         Item               Value     Threshold  Converged?
 Maximum Force            0.000093     0.000450     YES
 RMS     Force            0.000016     0.000300     YES
 Maximum Displacement     0.000402     0.001800     YES
 RMS     Displacement     0.000087     0.001200     YES
 Predicted change in Energy=-2.681740D-08
 Optimization completed.
    -- Stationary point found.
                           ----------------------------
                           !   Optimized Parameters   !
                           ! (Angstroms and Degrees)  !
 --------------------------                            --------------------------
 ! Name  Definition              Value          Derivative Info.                !
 --------------------------------------------------------------------------------
 ! R1    R(1,2)                  1.3968         -DE/DX =    0.0                 !
 ! R2    R(1,6)                  1.3925         -DE/DX =    0.0                 !
 ! R3    R(1,7)                  1.4392         -DE/DX =    0.0                 !
 ! R4    R(2,3)                  1.3831         -DE/DX =    0.0                 !
 ! R5    R(2,9)                  1.0806         -DE/DX =    0.0                 !
 ! R6    R(3,4)                  1.3972         -DE/DX =    0.0                 !
 ! R7    R(3,10)                 1.0816         -DE/DX =    0.0                 !
 ! R8    R(4,5)                  1.3905         -DE/DX =    0.0                 !
 ! R9    R(4,11)                 1.0818         -DE/DX =    0.0                 !
 ! R10   R(5,6)                  1.3886         -DE/DX =    0.0                 !
 ! R11   R(5,12)                 1.0811         -DE/DX =    0.0                 !
 ! R12   R(6,13)                 1.0816         -DE/DX =    0.0                 !
 ! R13   R(7,8)                  1.211          -DE/DX =    0.0001              !
 ! A1    A(2,1,6)              121.1332         -DE/DX =    0.0                 !
 ! A2    A(2,1,7)              123.7087         -DE/DX =    0.0                 !
 ! A3    A(6,1,7)              115.1581         -DE/DX =    0.0                 !
 ! A4    A(1,2,3)              119.0099         -DE/DX =    0.0                 !
 ! A5    A(1,2,9)              119.1133         -DE/DX =    0.0                 !
 ! A6    A(3,2,9)              121.8768         -DE/DX =    0.0                 !
 ! A7    A(2,3,4)              120.1174         -DE/DX =    0.0                 !
 ! A8    A(2,3,10)             120.0979         -DE/DX =    0.0                 !
 ! A9    A(4,3,10)             119.7847         -DE/DX =    0.0                 !
 ! A10   A(3,4,5)              120.6159         -DE/DX =    0.0                 !
 ! A11   A(3,4,11)             119.613          -DE/DX =    0.0                 !
 ! A12   A(5,4,11)             119.7711         -DE/DX =    0.0                 !
 ! A13   A(4,5,6)              119.5796         -DE/DX =    0.0                 !
 ! A14   A(4,5,12)             120.1662         -DE/DX =    0.0                 !
 ! A15   A(6,5,12)             120.2542         -DE/DX =    0.0                 !
 ! A16   A(1,6,5)              119.544          -DE/DX =    0.0                 !
 ! A17   A(1,6,13)             118.6165         -DE/DX =    0.0                 !
 ! A18   A(5,6,13)             121.8395         -DE/DX =    0.0                 !
 ! A19   A(1,7,8)              115.632          -DE/DX =    0.0                 !
 ! D1    D(6,1,2,3)              0.0            -DE/DX =    0.0                 !
 ! D2    D(6,1,2,9)            180.0            -DE/DX =    0.0                 !
 ! D3    D(7,1,2,3)            180.0            -DE/DX =    0.0                 !
 ! D4    D(7,1,2,9)              0.0            -DE/DX =    0.0                 !
 ! D5    D(2,1,6,5)              0.0            -DE/DX =    0.0                 !
 ! D6    D(2,1,6,13)           180.0            -DE/DX =    0.0                 !
 ! D7    D(7,1,6,5)            180.0            -DE/DX =    0.0                 !
 ! D8    D(7,1,6,13)             0.0            -DE/DX =    0.0                 !
 ! D9    D(2,1,7,8)              0.0            -DE/DX =    0.0                 !
 ! D10   D(6,1,7,8)            180.0            -DE/DX =    0.0                 !
 ! D11   D(1,2,3,4)              0.0            -DE/DX =    0.0                 !
 ! D12   D(1,2,3,10)           180.0            -DE/DX =    0.0                 !
 ! D13   D(9,2,3,4)            180.0            -DE/DX =    0.0                 !
 ! D14   D(9,2,3,10)             0.0            -DE/DX =    0.0                 !
 ! D15   D(2,3,4,5)              0.0            -DE/DX =    0.0                 !
 ! D16   D(2,3,4,11)           180.0            -DE/DX =    0.0                 !
 ! D17   D(10,3,4,5)           180.0            -DE/DX =    0.0                 !
 ! D18   D(10,3,4,11)            0.0            -DE/DX =    0.0                 !
 ! D19   D(3,4,5,6)              0.0            -DE/DX =    0.0                 !
 ! D20   D(3,4,5,12)           180.0            -DE/DX =    0.0                 !
 ! D21   D(11,4,5,6)           180.0            -DE/DX =    0.0                 !
 ! D22   D(11,4,5,12)            0.0            -DE/DX =    0.0                 !
 ! D23   D(4,5,6,1)              0.0            -DE/DX =    0.0                 !
 ! D24   D(4,5,6,13)           180.0            -DE/DX =    0.0                 !
 ! D25   D(12,5,6,1)           180.0            -DE/DX =    0.0                 !
 ! D26   D(12,5,6,13)            0.0            -DE/DX =    0.0                 !
 --------------------------------------------------------------------------------
 GradGradGradGradGradGradGradGradGradGradGradGradGradGradGradGradGradGrad


 ----------------------------------------------------------------------

 Electric dipole moment (input orientation):
 (Debye = 10**-18 statcoulomb cm , SI units = C m)
                  (au)            (Debye)         (10**-30 SI)
   Tot        0.154558D+01      0.392847D+01      0.131040D+02
   x          0.466004D+00      0.118446D+01      0.395095D+01
   y         -0.147365D+01     -0.374565D+01     -0.124942D+02
   z          0.000000D+00      0.000000D+00      0.000000D+00

 Dipole polarizability, Alpha (input orientation).
 (esu units = cm**3 , SI units = C**2 m**2 J**-1)
 Alpha(0;0):
               (au)            (10**-24 esu)      (10**-40 SI)
   iso        0.811899D+02      0.120311D+02      0.133864D+02
   aniso      0.632006D+02      0.936536D+01      0.104204D+02
   xx         0.905309D+02      0.134153D+02      0.149265D+02
   yx        -0.118951D+02     -0.176268D+01     -0.196125D+01
   yy         0.110053D+03      0.163082D+02      0.181453D+02
   zx         0.000000D+00      0.000000D+00      0.000000D+00
   zy         0.000000D+00      0.000000D+00      0.000000D+00
   zz         0.429857D+02      0.636983D+01      0.708739D+01

 ----------------------------------------------------------------------

 Dipole orientation:
     6          0.32112534          0.10154745         -1.07186449
     6         -1.98394075         -0.62736914         -0.01248745
     6         -2.21617022         -0.70080561          2.58988436
     6         -0.16580461         -0.05243135          4.12175764
     6          2.12447920          0.67181074          3.05631360
     6          2.37121770          0.74983530          0.44511577
     7          0.77344681          0.24458224         -3.74980576
     8         -0.99897465         -0.31589949         -5.08448833
     1         -3.53434745         -1.11764453         -1.24781026
     1         -3.98589163         -1.26043352          3.44559554
     1         -0.36451890         -0.11526953          6.15542499
     1          3.70209020          1.17068877          4.25466626
     1          4.12006089          1.30286102         -0.45661496

 Electric dipole moment (dipole orientation):
 (Debye = 10**-18 statcoulomb cm , SI units = C m)
                  (au)            (Debye)         (10**-30 SI)
   Tot        0.154558D+01      0.392847D+01      0.131040D+02
   x          0.000000D+00      0.000000D+00      0.000000D+00
   y          0.000000D+00      0.000000D+00      0.000000D+00
   z          0.154558D+01      0.392847D+01      0.131040D+02

 Dipole polarizability, Alpha (dipole orientation).
 (esu units = cm**3 , SI units = C**2 m**2 J**-1)
 Alpha(0;0):
               (au)            (10**-24 esu)      (10**-40 SI)
   iso        0.811899D+02      0.120311D+02      0.133864D+02
   aniso      0.632006D+02      0.936536D+01      0.104204D+02
   xx         0.816046D+02      0.120926D+02      0.134548D+02
   yx         0.122122D+02      0.180966D+01      0.201352D+01
   yy         0.468475D+02      0.694209D+01      0.772411D+01
   zx         0.392854D+01      0.582150D+00      0.647729D+00
   zy         0.124230D+01      0.184090D+00      0.204827D+00
   zz         0.115117D+03      0.170586D+02      0.189803D+02

 ----------------------------------------------------------------------
 1\1\GINC-GAMBA\Freq\RB3LYP\Gen\C6H5N1O1\IRIKURA\16-Jun-2022\0\\#N Geom
 =AllCheck Guess=TCheck SCRF=Check GenChk RB3LYP/ChkBas Freq\\nitrosobe
 nzene, B3LYP/pcseg-2\\0,1\C,-0.0010849296,0.5945471771,0.\C,-1.0518486
 19,-0.3256888982,0.\C,-0.7595279235,-1.6775797746,0.\C,0.5698908675,-2
 .1073834841,0.\C,1.611864117,-1.1865599402,0.\C,1.3258130691,0.1722120
 336,0.\N,-0.1889951358,2.0213965649,0.\O,-1.3398702299,2.3982181801,0.
 \H,-2.0693856016,0.0381522224,0.\H,-1.5594945226,-2.4054722652,0.\H,0.
 7892096183,-3.1667254332,0.\H,2.6378983697,-1.5271953969,0.\H,2.107388
 9205,0.9198300144,0.\\Version=ES64L-G16RevB.01\State=1-A'\HF=-361.6806
 534\RMSD=1.813e-09\RMSF=2.960e-05\ZeroPoint=0.0971223\Thermal=0.103329
 6\Dipole=0.4660043,-1.4736539,0.\DipoleDeriv=0.0312861,-0.0218914,0.,0
 .3260617,-0.9407696,0.,0.,0.,0.1056161,-0.0461209,0.1365301,0.,-0.1880
 592,0.1395159,0.,0.,0.,-0.0427569,-0.0775031,0.2315059,0.,0.2624704,-0
 .1090371,0.,0.,0.,-0.1430663,0.1394961,-0.0642991,0.,-0.0000113,0.1306
 89,0.,0.,0.,-0.0872712,0.0881761,-0.1446525,0.,-0.1749931,-0.2113081,0
 .,0.,0.,-0.148638,0.0461573,-0.188485,0.,0.1219647,0.2061496,0.,0.,0.,
 -0.0643413,0.509598,-0.9782199,0.,-0.5178532,1.4235108,0.,0.,0.,-0.168
 5762,-0.7392835,1.0665719,0.,0.1983808,-0.7413142,0.,0.,0.,-0.1194373,
 0.0196842,-0.0022708,0.,0.0331162,0.0985884,0.,0.,0.,0.1300475,-0.0109
 541,-0.0798403,0.,-0.0669205,-0.0144622,0.,0.,0.,0.1337199,0.0699004,0
 .0283696,0.,0.0307408,-0.0703875,0.,0.,0.,0.1310651,-0.0623787,0.05211
 41,0.,0.0432086,0.0511747,0.,0.,0.,0.1383201,0.0319422,-0.0354327,0.,-
 0.0681059,0.0376503,0.,0.,0.,0.1353185\Polar=90.5308501,-11.8951486,11
 0.0529875,0.,0.,42.9857447\Quadrupole=3.1701366,-2.1885519,-0.9815846,
 1.8797446,0.,0.\PG=CS [SG(C6H5N1O1)]\NImag=0\\0.72587013,0.01638766,0.
 54678097,0.,0.,0.12834355,-0.24107508,-0.10084165,0.,0.72025897,-0.062
 87478,-0.17621080,0.,-0.04566875,0.67903659,0.,0.,-0.07013459,0.,0.,0.
 14213494,0.04788086,-0.00781922,0.,-0.13885992,0.01136287,0.,0.6874068
 8,-0.05271881,-0.05297183,0.,0.07563800,-0.33805371,0.,0.04598846,0.70
 407493,0.,0.,0.00858539,0.,0.,-0.06425327,0.,0.,0.13660366,-0.05772387
 ,-0.01387057,0.,0.00921395,0.08304790,0.,-0.29826502,0.01871519,0.,0.6
 4960797,-0.01203601,-0.00407336,0.,0.03924740,-0.00459933,0.,0.0851026
 7,-0.14772040,0.,-0.01152094,0.73513520,0.,0.,-0.00831418,0.,0.,0.0067
 6329,0.,0.,-0.06490748,0.,0.,0.14256402,0.00914708,0.03368074,0.,-0.00
 594201,-0.01778901,0.,-0.05198528,-0.00300803,0.,-0.24451143,-0.130526
 05,0.,0.73502285,0.07578329,-0.01028197,0.,-0.02032242,-0.05710839,0.,
 -0.04599114,0.06040481,0.,-0.06419109,-0.21696683,0.,-0.03059277,0.661
 00583,0.,0.,0.00924919,0.,0.,-0.00483905,0.,0.,0.00732851,0.,0.,-0.064
 67592,0.,0.,0.13618054,-0.31220165,0.06522591,0.,-0.04916230,-0.039714
 68,0.,-0.02855846,0.03217347,0.,0.05200587,-0.01503586,0.,-0.14111024,
 0.01215811,0.,0.69696898,0.01911703,-0.12853342,0.,-0.00385786,0.05232
 166,0.,0.03127318,-0.03640397,0.,-0.06055332,-0.04803780,0.,0.07540285
 ,-0.32223576,0.,0.03911130,0.71171060,0.,0.,-0.06747449,0.,0.,0.008380
 20,0.,0.,-0.00550968,0.,0.,0.00681467,0.,0.,-0.06637935,0.,0.,0.144860
 99,-0.10543436,-0.07174261,0.,0.02749041,-0.01075960,0.,-0.00076174,-0
 .01167868,0.,-0.00703526,0.00018712,0.,-0.00655745,0.00178014,0.,-0.01
 781842,0.04533944,0.,0.74252125,-0.05863716,-0.14604972,0.,-0.00996541
 ,-0.05459033,0.,-0.01229591,0.00624308,0.,0.00103843,0.00085181,0.,0.0
 0252971,0.00691565,0.,0.02789045,-0.02164699,0.,-0.08370515,0.32581896
 ,0.,0.,-0.02439975,0.,0.,0.00843339,0.,0.,0.00431312,0.,0.,0.00037003,
 0.,0.,0.00764325,0.,0.,-0.00234159,0.,0.,0.02304526,-0.02923099,0.0918
 8017,0.,-0.01097924,-0.01435008,0.,-0.00256553,0.00554148,0.,0.0019049
 8,-0.00052753,0.,0.00103332,0.00302297,0.,0.01442413,-0.00134178,0.,-0
 .63220891,0.13343565,0.,0.65372586,0.08621374,-0.04437823,0.,0.0012873
 6,0.00488119,0.,0.00396548,0.00180202,0.,0.00224703,-0.00043237,0.,0.0
 0160686,-0.00402381,0.,-0.00792888,-0.00669285,0.,0.12800289,-0.118732
 02,0.,-0.21790813,0.17053003,0.,0.,-0.00159463,0.,0.,-0.00143486,0.,0.
 ,0.00032896,0.,0.,-0.00059057,0.,0.,-0.00175099,0.,0.,0.00506257,0.,0.
 ,-0.00579458,0.,0.,0.00430001,-0.02007227,0.00619044,0.,-0.31031245,0.
 08650057,0.,0.00025098,-0.00025392,0.,0.00136847,0.00035819,0.,0.00053
 703,-0.00017266,0.,-0.00159881,-0.00393374,0.,-0.00317176,0.00344047,0
 .,0.00360496,0.00152483,0.,0.32954724,-0.01854296,0.01464587,0.,0.0852
 8260,-0.08837627,0.,0.02943161,-0.00473164,0.,0.00017970,-0.00532004,0
 .,-0.00049545,-0.00093606,0.,-0.00317412,-0.00321217,0.,0.00193957,0.0
 0120363,0.,0.00008241,-0.00216192,0.,-0.09436226,0.08745719,0.,0.,0.00
 518987,0.,0.,-0.04083155,0.,0.,0.00531491,0.,0.,0.00806927,0.,0.,-0.00
 109663,0.,0.,0.00574858,0.,0.,-0.00395604,0.,0.,-0.00000841,0.,0.,0.02
 694436,0.00093636,0.00178935,0.,0.00927187,0.00621621,0.,-0.21185916,-
 0.13781350,0.,-0.01767258,-0.02205124,0.,-0.00436534,0.00316054,0.,-0.
 00015038,0.00107728,0.,0.00027603,0.00067837,0.,0.00013801,-0.00021742
 ,0.,0.00070160,-0.00047139,0.,0.22250092,0.00304849,-0.00476867,0.,-0.
 02430012,-0.01727417,0.,-0.13818902,-0.18451850,0.,0.00920619,0.010526
 96,0.,0.00245357,0.00042224,0.,0.00097731,-0.00045001,0.,-0.00268675,-
 0.00096711,0.,0.00091435,0.00041580,0.,0.00020287,0.00136263,0.,0.1484
 6090,0.19417284,0.,0.,0.00861083,0.,0.,0.00413880,0.,0.,-0.03863940,0.
 ,0.,0.00334773,0.,0.,0.00680218,0.,0.,-0.00095653,0.,0.,-0.00107839,0.
 ,0.,0.00066666,0.,0.,-0.00466864,0.,0.,0.02629649,-0.00145265,-0.00062
 671,0.,-0.00549443,0.00150956,0.,-0.00113501,0.03050898,0.,-0.07185703
 ,0.05495829,0.,0.00922626,-0.02426405,0.,-0.00321764,-0.00346265,0.,-0
 .00006171,0.00016228,0.,0.00026134,0.00013035,0.,-0.00005736,0.0013065
 9,0.,0.00107378,-0.00052895,0.,0.07142972,-0.00045773,0.00083488,0.,0.
 00180507,0.00116932,0.,-0.00044681,-0.00525432,0.,0.05492818,-0.325529
 75,0.,0.00662194,-0.01572790,0.,-0.00373111,-0.00107230,0.,-0.00002141
 ,-0.00017936,0.,0.00013101,-0.00009250,0.,-0.00018333,-0.00026429,0.,0
 .00029405,0.00074017,0.,-0.05918991,0.34517652,0.,0.,-0.00035769,0.,0.
 ,0.00681249,0.,0.,0.00458457,0.,0.,-0.04031427,0.,0.,0.00491026,0.,0.,
 0.00762936,0.,0.,-0.00166524,0.,0.,0.00045664,0.,0.,-0.00029068,0.,0.,
 -0.00371698,0.,0.,0.02624038,0.00191909,0.00107910,0.,0.00044887,-0.00
 058832,0.,-0.00145571,-0.00400945,0.,-0.01781555,0.00956571,0.,-0.3106
 9472,0.08312257,0.,-0.00176215,0.00029789,0.,0.00009800,-0.00067552,0.
 ,-0.00036033,0.00028530,0.,-0.00002630,0.00005564,0.,-0.00088052,0.000
 51807,0.,0.00095298,-0.00019377,0.,0.32892381,-0.00063517,-0.00539041,
 0.,-0.00049181,-0.00108450,0.,-0.00328466,-0.00241212,0.,-0.02162859,0
 .01082250,0.,0.08323586,-0.08730404,0.,0.03141514,-0.00550582,0.,0.001
 31191,0.00063953,0.,0.00071601,-0.00099466,0.,0.00007249,0.00006229,0.
 ,-0.00104823,0.00033689,0.,0.00061151,0.00090021,0.,-0.08971499,0.0887
 1283,0.,0.,0.00755374,0.,0.,-0.00094210,0.,0.,0.00732829,0.,0.,0.00347
 194,0.,0.,-0.03814449,0.,0.,0.00347172,0.,0.,0.00057853,0.,0.,-0.00038
 920,0.,0.,-0.00101711,0.,0.,0.00013411,0.,0.,-0.00410846,0.,0.,0.02625
 238,-0.01856266,-0.02133262,0.,-0.00485864,0.00310811,0.,-0.00009288,0
 .00091680,0.,0.00077948,0.00227825,0.,0.01019992,0.00650651,0.,-0.2078
 1894,-0.13846963,0.,0.00266393,-0.00389621,0.,0.00025240,0.00079060,0.
 ,-0.00077132,-0.00123193,0.,0.00002942,-0.00007691,0.,0.00033174,0.000
 44381,0.,0.00065252,-0.00055945,0.,0.21719502,0.00535243,0.01039671,0.
 ,0.00218759,-0.00011125,0.,0.00090249,-0.00045835,0.,0.00240188,-0.004
 65658,0.,-0.02312022,-0.01416377,0.,-0.13936704,-0.19024119,0.,0.00203
 312,0.00049287,0.,-0.00159653,-0.00012066,0.,0.00061605,0.00027080,0.,
 -0.00007493,0.00000095,0.,-0.00111528,-0.00070068,0.,0.00025778,0.0012
 1730,0.,0.15152266,0.19807384,0.,0.,0.00474276,0.,0.,0.00577231,0.,0.,
 -0.00107760,0.,0.,0.00740148,0.,0.,0.00477250,0.,0.,-0.03930646,0.,0.,
 -0.00514797,0.,0.,0.00074840,0.,0.,0.00060207,0.,0.,-0.00093686,0.,0.,
 -0.00018037,0.,0.,-0.00418933,0.,0.,0.02679907\\0.00000607,-0.00007118
 ,0.,-0.00002958,0.00002077,0.,0.00000146,-0.00000909,0.,0.00000017,-0.
 00001528,0.,0.00000686,-0.00001924,0.,0.00001328,0.00006647,0.,-0.0000
 9143,0.00005983,0.,0.00008962,-0.00002781,0.,0.00001900,0.00001627,0.,
 0.00001480,-0.00000218,0.,0.00000002,0.00000683,0.,-0.00001456,-0.0000
 1305,0.,-0.00001573,-0.00001233,0.\\\@


 GROWING OLD ISN'T SO BAD -- WHEN YOU CONSIDER THE ALTERNATIVE.

                     -- MAURICE CHEVALIER
 Job cpu time:       0 days  0 hours 59 minutes 46.6 seconds.
 Elapsed time:       0 days  0 hours  4 minutes 59.0 seconds.
 File lengths (MBytes):  RWF=    118 Int=      0 D2E=      0 Chk=      9 Scr=      1
 Normal termination of Gaussian 16 at Thu Jun 16 17:07:46 2022.
