 Entering Gaussian System, Link 0=g16
 AtFile(1): pcseg2.gbs
            -H     0
            S   4   1.00
                  0.754732D+02           0.427821D-02
                  0.113575D+02           0.328672D-01
                  0.260081D+01           0.159578D+00
                  0.735503D+00           0.500000D+00
            S   1   1.00
                  0.231761D+00           1.0000000
            S   1   1.00
                  0.741675D-01           1.0000000
            P   1   1.00
                  0.160000D+01           1.0000000
            P   1   1.00
                  0.450000D+00           1.0000000
            D   1   1.00
                  0.125000D+01           1.0000000
            ****
            -C     0
            S   7   1.00
                  0.731999D+04           0.695369D-03
                  0.109818D+04           0.537138D-02
                  0.250014D+03           0.274734D-01
                  0.707586D+02           0.105078D+00
                  0.228595D+02           0.291262D+00
                  0.803936D+01           0.500000D+00
                  0.289309D+01           0.362224D+00
            S   2   1.00
                  0.521640D+01          -0.957844D-01
                  0.556124D+00           0.500000D+00
            S   1   1.00
                  0.228813D+00           1.0000000
            S   1   1.00
                  0.936338D-01           1.0000000
            P   4   1.00
                  0.339855D+02           0.818395D-02
                  0.772957D+01           0.586921D-01
                  0.224954D+01           0.222514D+00
                  0.767681D+00           0.500000D+00
            P   1   1.00
                  0.263283D+00           1.0000000
            P   1   1.00
                  0.848744D-01           1.0000000
            D   1   1.00
                  0.140000D+01           1.0000000
            D   1   1.00
                  0.450000D+00           1.0000000
            F   1   1.00
                  0.950000D+00           1.0000000
            ****
            -O     0
            S   7   1.00
                  0.135887D+05           0.665492D-03
                  0.203847D+04           0.514222D-02
                  0.464041D+03           0.263472D-01
                  0.131339D+03           0.101500D+00
                  0.425340D+02           0.285877D+00
                  0.150429D+02           0.500000D+00
                  0.546616D+01           0.368211D+00
            S   2   1.00
                  0.100915D+02          -0.100084D+00
                  0.110429D+01           0.500000D+00
            S   1   1.00
                  0.448082D+00           1.0000000
            S   1   1.00
                  0.175325D+00           1.0000000
            P   4   1.00
                  0.608220D+02           0.908253D-02
                  0.140332D+02           0.645878D-01
                  0.418244D+01           0.241502D+00
                  0.142490D+01           0.500000D+00
            P   1   1.00
                  0.478741D+00           1.0000000
            P   1   1.00
                  0.146257D+00           1.0000000
            D   1   1.00
                  0.220000D+01           1.0000000
            D   1   1.00
                  0.650000D+00           1.0000000
            F   1   1.00
                  0.110000D+01           1.0000000
            ****
            -N     0
            S   7   1.00
                  0.101643D+05           0.682757D-03
                  0.152481D+04           0.527488D-02
                  0.347119D+03           0.270037D-01
                  0.982389D+02           0.103673D+00
                  0.317799D+02           0.289575D+00
                  0.112240D+02           0.500000D+00
                  0.406611D+01           0.364621D+00
            S   2   1.00
                  0.747898D+01          -0.975681D-01
                  0.805040D+00           0.500000D+00
            S   1   1.00
                  0.324626D+00           1.0000000
            S   1   1.00
                  0.128132D+00           1.0000000
            P   4   1.00
                  0.482704D+02           0.829547D-02
                  0.110815D+02           0.596223D-01
                  0.326643D+01           0.227889D+00
                  0.111680D+01           0.500000D+00
            P   1   1.00
                  0.382049D+00           1.0000000
            P   1   1.00
                  0.121222D+00           1.0000000
            D   1   1.00
                  0.180000D+01           1.0000000
            D   1   1.00
                  0.550000D+00           1.0000000
            F   1   1.00
                  0.102000D+01           1.0000000
            ****
            -F     0
            S   7   1.00
                  0.174507D+05           0.655972D-03
                  0.261768D+04           0.506944D-02
                  0.595857D+03           0.259899D-01
                  0.168651D+03           0.100353D+00
                  0.546654D+02           0.284095D+00
                  0.193717D+02           0.500000D+00
                  0.706202D+01           0.370721D+00
            S   2   1.00
                  0.131197D+02          -0.101997D+00
                  0.145046D+01           0.500000D+00
            S   1   1.00
                  0.588255D+00           1.0000000
            S   1   1.00
                  0.227960D+00           1.0000000
            P   4   1.00
                  0.779407D+02           0.931135D-02
                  0.180425D+02           0.663964D-01
                  0.542342D+01           0.246386D+00
                  0.184876D+01           0.500000D+00
            P   1   1.00
                  0.617455D+00           1.0000000
            P   1   1.00
                  0.185496D+00           1.0000000
            D   1   1.00
                  0.280000D+01           1.0000000
            D   1   1.00
                  0.800000D+00           1.0000000
            F   1   1.00
                  0.120000D+01           1.0000000
            ****
            -Cl     0
            S   8   1.00
                  0.154272D+06           0.222473D-03
                  0.231232D+05           0.172590D-02
                  0.526257D+04           0.899286D-02
                  0.148995D+04           0.367724D-01
                  0.485417D+03           0.121446D+00
                  0.174634D+03           0.304148D+00
                  0.672393D+02           0.500000D+00
                  0.265780D+02           0.360252D+00
            S   3   1.00
                  0.131826D+03          -0.531330D-01
                  0.400703D+02          -0.233346D+00
                  0.789448D+01           0.500000D+00
            S   2   1.00
                  0.427711D+01           0.500000D+00
                  0.196233D+01           0.370517D+00
            S   1   1.00
                  0.520793D+00           1.0000000
            S   1   1.00
                  0.181633D+00           1.0000000
            P   7   1.00
                  0.124440D+04           0.988206D-03
                  0.295109D+03           0.829674D-02
                  0.947224D+02           0.430906D-01
                  0.352588D+02           0.148443D+00
                  0.144211D+02           0.344744D+00
                  0.610371D+01           0.500000D+00
                  0.258886D+01           0.348278D+00
            P   2   1.00
                  0.109447D+02          -0.196768D-01
                  0.104413D+01           0.500000D+00
            P   1   1.00
                  0.376184D+00           1.0000000
            P   1   1.00
                  0.120613D+00           1.0000000
            D   1   1.00
                  0.231000D+01           1.0000000
            D   1   1.00
                  0.520000D+00           1.0000000
            F   1   1.00
                  0.720000D+00           1.0000000
            ****
            -S     0
            S   8   1.00
                  0.134700D+06           0.226231D-03
                  0.201904D+05           0.175488D-02
                  0.459528D+04           0.914190D-02
                  0.130109D+04           0.373551D-01
                  0.423902D+03           0.123121D+00
                  0.152485D+03           0.306801D+00
                  0.586925D+02           0.500000D+00
                  0.231461D+02           0.354358D+00
            S   3   1.00
                  0.116327D+03          -0.491772D-01
                  0.352841D+02          -0.215962D+00
                  0.677831D+01           0.500000D+00
            S   2   1.00
                  0.360404D+01           0.500000D+00
                  0.164871D+01           0.366278D+00
            S   1   1.00
                  0.421821D+00           1.0000000
            S   1   1.00
                  0.147554D+00           1.0000000
            P   7   1.00
                  0.104863D+04           0.105273D-02
                  0.248717D+03           0.879338D-02
                  0.797887D+02           0.453358D-01
                  0.296023D+02           0.154476D+00
                  0.120627D+02           0.352366D+00
                  0.507628D+01           0.500000D+00
                  0.213375D+01           0.346429D+00
            P   2   1.00
                  0.928958D+01          -0.185932D-01
                  0.837819D+00           0.500000D+00
            P   1   1.00
                  0.301495D+00           1.0000000
            P   1   1.00
                  0.974740D-01           1.0000000
            D   1   1.00
                  0.210000D+01           1.0000000
            D   1   1.00
                  0.480000D+00           1.0000000
            F   1   1.00
                  0.660000D+00           1.0000000
            ****
            -Si     0
            S    8   1.00
                  0.996133D+05           0.235546D-03
                  0.149311D+05           0.182707D-02
                  0.339820D+04           0.951425D-02
                  0.962140D+03           0.388172D-01
                  0.313430D+03           0.127328D+00
                  0.112683D+03           0.313522D+00
                  0.433372D+02           0.500000D+00
                  0.170029D+02           0.340347D+00
            S    3   1.00
                  0.884208D+02          -0.404451D-01
                  0.266756D+02          -0.178059D+00
                  0.479640D+01           0.500000D+00
            S    2   1.00
                  0.239385D+01           0.500000D+00
                  0.108333D+01           0.338016D+00
            S    1   1.00
                  0.252420D+00           1.0000000
            S    1   1.00
                  0.891210D-01           1.0000000
            P    7   1.00
                  0.709901D+03           0.123028D-02
                  0.168426D+03           0.101366D-01
                  0.539946D+02           0.511840D-01
                  0.198646D+02           0.169967D+00
                  0.801369D+01           0.370717D+00
                  0.331870D+01           0.500000D+00
                  0.136112D+01           0.344128D+00
            P    2   1.00
                  0.622158D+01          -0.166609D-01
                  0.503049D+00           0.500000D+00
            P    1   1.00
                  0.179848D+00           1.0000000
            P    1   1.00
                  0.591912D-01           1.0000000
            D    1   1.00
                  0.168000D+01           1.0000000
            D    1   1.00
                  0.380000D+00           1.0000000
            F    1   1.00
                  0.540000D+00           1.0000000
            ****
            -P     0
            S    8   1.00
                  0.116416D+06           0.230715D-03
                  0.174500D+05           0.178960D-02
                  0.397149D+04           0.932116D-02
                  0.112447D+04           0.380591D-01
                  0.366347D+03           0.125148D+00
                  0.131757D+03           0.310022D+00
                  0.506988D+02           0.500000D+00
                  0.199436D+02           0.347528D+00
            S    3   1.00
                  0.101878D+03          -0.446755D-01
                  0.308249D+02          -0.196376D+00
                  0.573688D+01           0.500000D+00
            S    2   1.00
                  0.296868D+01           0.500000D+00
                  0.135315D+01           0.355098D+00
            S    1   1.00
                  0.332196D+00           1.0000000
            S    1   1.00
                  0.116229D+00           1.0000000
            P    7   1.00
                  0.873928D+03           0.112375D-02
                  0.207298D+03           0.933330D-02
                  0.664628D+02           0.477213D-01
                  0.245665D+02           0.160733D+00
                  0.996820D+01           0.359760D+00
                  0.416536D+01           0.500000D+00
                  0.173022D+01           0.346593D+00
            P    2   1.00
                  0.772530D+01          -0.175718D-01
                  0.657252D+00           0.500000D+00
            P    1   1.00
                  0.239903D+00           1.0000000
            P    1   1.00
                  0.800988D-01           1.0000000
            D    1   1.00
                  0.189000D+01           1.0000000
            D    1   1.00
                  0.430000D+00           1.0000000
            F    1   1.00
                  0.600000D+00           1.0000000
            ****
            
 Initial command:
 /usr/local/apps/g16_b01_avx/g16/l1.exe "/wrk/irikura/Gau-22325.inp" -scrdir="/wrk/irikura/"
 Entering Link 1 = /usr/local/apps/g16_b01_avx/g16/l1.exe PID=     22327.
  
 Copyright (c) 1988-2017, Gaussian, Inc.  All Rights Reserved.
  
 This is part of the Gaussian(R) 16 program.  It is based on
 the Gaussian(R) 09 system (copyright 2009, Gaussian, Inc.),
 the Gaussian(R) 03 system (copyright 2003, Gaussian, Inc.),
 the Gaussian(R) 98 system (copyright 1998, Gaussian, Inc.),
 the Gaussian(R) 94 system (copyright 1995, Gaussian, Inc.),
 the Gaussian 92(TM) system (copyright 1992, Gaussian, Inc.),
 the Gaussian 90(TM) system (copyright 1990, Gaussian, Inc.),
 the Gaussian 88(TM) system (copyright 1988, Gaussian, Inc.),
 the Gaussian 86(TM) system (copyright 1986, Carnegie Mellon
 University), and the Gaussian 82(TM) system (copyright 1983,
 Carnegie Mellon University). Gaussian is a federally registered
 trademark of Gaussian, Inc.
  
 This software contains proprietary and confidential information,
 including trade secrets, belonging to Gaussian, Inc.
  
 This software is provided under written license and may be
 used, copied, transmitted, or stored only in accord with that
 written license.
  
 The following legend is applicable only to US Government
 contracts under FAR:
  
                    RESTRICTED RIGHTS LEGEND
  
 Use, reproduction and disclosure by the US Government is
 subject to restrictions as set forth in subparagraphs (a)
 and (c) of the Commercial Computer Software - Restricted
 Rights clause in FAR 52.227-19.
  
 Gaussian, Inc.
 340 Quinnipiac St., Bldg. 40, Wallingford CT 06492
  
  
 ---------------------------------------------------------------
 Warning -- This program may not be used in any manner that
 competes with the business of Gaussian, Inc. or will provide
 assistance to any competitor of Gaussian, Inc.  The licensee
 of this program is prohibited from giving any competitor of
 Gaussian, Inc. access to this program.  By using this program,
 the user acknowledges that Gaussian, Inc. is engaged in the
 business of creating and licensing software in the field of
 computational chemistry and represents and warrants to the
 licensee that it is not a competitor of Gaussian, Inc. and that
 it will not use this program in any manner prohibited above.
 ---------------------------------------------------------------
  

 Cite this work as:
 Gaussian 16, Revision B.01,
 M. J. Frisch, G. W. Trucks, H. B. Schlegel, G. E. Scuseria, 
 M. A. Robb, J. R. Cheeseman, G. Scalmani, V. Barone, 
 G. A. Petersson, H. Nakatsuji, X. Li, M. Caricato, A. V. Marenich, 
 J. Bloino, B. G. Janesko, R. Gomperts, B. Mennucci, H. P. Hratchian, 
 J. V. Ortiz, A. F. Izmaylov, J. L. Sonnenberg, D. Williams-Young, 
 F. Ding, F. Lipparini, F. Egidi, J. Goings, B. Peng, A. Petrone, 
 T. Henderson, D. Ranasinghe, V. G. Zakrzewski, J. Gao, N. Rega, 
 G. Zheng, W. Liang, M. Hada, M. Ehara, K. Toyota, R. Fukuda, 
 J. Hasegawa, M. Ishida, T. Nakajima, Y. Honda, O. Kitao, H. Nakai, 
 T. Vreven, K. Throssell, J. A. Montgomery, Jr., J. E. Peralta, 
 F. Ogliaro, M. J. Bearpark, J. J. Heyd, E. N. Brothers, K. N. Kudin, 
 V. N. Staroverov, T. A. Keith, R. Kobayashi, J. Normand, 
 K. Raghavachari, A. P. Rendell, J. C. Burant, S. S. Iyengar, 
 J. Tomasi, M. Cossi, J. M. Millam, M. Klene, C. Adamo, R. Cammi, 
 J. W. Ochterski, R. L. Martin, K. Morokuma, O. Farkas, 
 J. B. Foresman, and D. J. Fox, Gaussian, Inc., Wallingford CT, 2016.
 
 ******************************************
 Gaussian 16:  ES64L-G16RevB.01 20-Dec-2017
                 1-Mar-2022 
 ******************************************
 %mem=1000mw
 %nprocs=12
 Will use up to   12 processors via shared memory.
 --------------------
 # b3lyp/gen opt freq
 --------------------
 1/18=20,19=15,26=3,38=1/1,3;
 2/9=110,12=2,17=6,18=5,40=1/2;
 3/5=7,11=2,25=1,30=1,71=1,74=-5/1,2,3;
 4//1;
 5/5=2,38=5/2;
 6/7=2,8=2,9=2,10=2,28=1/1;
 7//1,2,3,16;
 1/18=20,19=15,26=3/3(2);
 2/9=110/2;
 99//99;
 2/9=110/2;
 3/5=7,6=1,11=2,25=1,30=1,71=1,74=-5,82=7/1,2,3;
 4/5=5,16=3,69=1/1;
 5/5=2,38=5/2;
 7//1,2,3,16;
 1/18=20,19=15,26=3/3(-5);
 2/9=110/2;
 6/7=2,8=2,9=2,10=2,19=2,28=1/1;
 99/9=1/99;
 ---------------------------
 nitrobenzene, B3LYP/pcseg-2
 ---------------------------
 Symbolic Z-matrix:
 Charge =  0 Multiplicity = 1
 C                     0.        0.        0.24195 
 C                     0.        1.21784  -0.42964 
 C                     0.        1.20982  -1.82071 
 C                     0.        0.       -2.51486 
 C                     0.       -1.20982  -1.82071 
 C                     0.       -1.21784  -0.42964 
 N                     0.        0.        1.72287 
 O                     0.       -1.08437   2.2895 
 O                     0.        1.08437   2.2895 
 H                     0.        2.13916   0.13688 
 H                     0.        2.14933  -2.36222 
 H                     0.        0.       -3.59975 
 H                     0.       -2.14933  -2.36222 
 H                     0.       -2.13916   0.13688 
 

 GradGradGradGradGradGradGradGradGradGradGradGradGradGradGradGradGradGrad
 Berny optimization.
 Initialization pass.
                           ----------------------------
                           !    Initial Parameters    !
                           ! (Angstroms and Degrees)  !
 --------------------------                            --------------------------
 ! Name  Definition              Value          Derivative Info.                !
 --------------------------------------------------------------------------------
 ! R1    R(1,2)                  1.3907         estimate D2E/DX2                !
 ! R2    R(1,6)                  1.3907         estimate D2E/DX2                !
 ! R3    R(1,7)                  1.4809         estimate D2E/DX2                !
 ! R4    R(2,3)                  1.3911         estimate D2E/DX2                !
 ! R5    R(2,10)                 1.0816         estimate D2E/DX2                !
 ! R6    R(3,4)                  1.3948         estimate D2E/DX2                !
 ! R7    R(3,11)                 1.0844         estimate D2E/DX2                !
 ! R8    R(4,5)                  1.3948         estimate D2E/DX2                !
 ! R9    R(4,12)                 1.0849         estimate D2E/DX2                !
 ! R10   R(5,6)                  1.3911         estimate D2E/DX2                !
 ! R11   R(5,13)                 1.0844         estimate D2E/DX2                !
 ! R12   R(6,14)                 1.0816         estimate D2E/DX2                !
 ! R13   R(7,8)                  1.2235         estimate D2E/DX2                !
 ! R14   R(7,9)                  1.2235         estimate D2E/DX2                !
 ! A1    A(2,1,6)              122.2502         estimate D2E/DX2                !
 ! A2    A(2,1,7)              118.8749         estimate D2E/DX2                !
 ! A3    A(6,1,7)              118.8749         estimate D2E/DX2                !
 ! A4    A(1,2,3)              118.5446         estimate D2E/DX2                !
 ! A5    A(1,2,10)             119.5379         estimate D2E/DX2                !
 ! A6    A(3,2,10)             121.9175         estimate D2E/DX2                !
 ! A7    A(2,3,4)              120.1759         estimate D2E/DX2                !
 ! A8    A(2,3,11)             119.6282         estimate D2E/DX2                !
 ! A9    A(4,3,11)             120.1959         estimate D2E/DX2                !
 ! A10   A(3,4,5)              120.3088         estimate D2E/DX2                !
 ! A11   A(3,4,12)             119.8456         estimate D2E/DX2                !
 ! A12   A(5,4,12)             119.8456         estimate D2E/DX2                !
 ! A13   A(4,5,6)              120.1759         estimate D2E/DX2                !
 ! A14   A(4,5,13)             120.1959         estimate D2E/DX2                !
 ! A15   A(6,5,13)             119.6282         estimate D2E/DX2                !
 ! A16   A(1,6,5)              118.5446         estimate D2E/DX2                !
 ! A17   A(1,6,14)             119.5379         estimate D2E/DX2                !
 ! A18   A(5,6,14)             121.9175         estimate D2E/DX2                !
 ! A19   A(1,7,8)              117.5889         estimate D2E/DX2                !
 ! A20   A(1,7,9)              117.5889         estimate D2E/DX2                !
 ! A21   A(8,7,9)              124.8221         estimate D2E/DX2                !
 ! D1    D(6,1,2,3)              0.0            estimate D2E/DX2                !
 ! D2    D(6,1,2,10)           180.0            estimate D2E/DX2                !
 ! D3    D(7,1,2,3)            180.0            estimate D2E/DX2                !
 ! D4    D(7,1,2,10)             0.0            estimate D2E/DX2                !
 ! D5    D(2,1,6,5)              0.0            estimate D2E/DX2                !
 ! D6    D(2,1,6,14)           180.0            estimate D2E/DX2                !
 ! D7    D(7,1,6,5)            180.0            estimate D2E/DX2                !
 ! D8    D(7,1,6,14)             0.0            estimate D2E/DX2                !
 ! D9    D(2,1,7,8)            180.0            estimate D2E/DX2                !
 ! D10   D(2,1,7,9)              0.0            estimate D2E/DX2                !
 ! D11   D(6,1,7,8)              0.0            estimate D2E/DX2                !
 ! D12   D(6,1,7,9)            180.0            estimate D2E/DX2                !
 ! D13   D(1,2,3,4)              0.0            estimate D2E/DX2                !
 ! D14   D(1,2,3,11)           180.0            estimate D2E/DX2                !
 ! D15   D(10,2,3,4)           180.0            estimate D2E/DX2                !
 ! D16   D(10,2,3,11)            0.0            estimate D2E/DX2                !
 ! D17   D(2,3,4,5)              0.0            estimate D2E/DX2                !
 ! D18   D(2,3,4,12)           180.0            estimate D2E/DX2                !
 ! D19   D(11,3,4,5)           180.0            estimate D2E/DX2                !
 ! D20   D(11,3,4,12)            0.0            estimate D2E/DX2                !
 ! D21   D(3,4,5,6)              0.0            estimate D2E/DX2                !
 ! D22   D(3,4,5,13)           180.0            estimate D2E/DX2                !
 ! D23   D(12,4,5,6)           180.0            estimate D2E/DX2                !
 ! D24   D(12,4,5,13)            0.0            estimate D2E/DX2                !
 ! D25   D(4,5,6,1)              0.0            estimate D2E/DX2                !
 ! D26   D(4,5,6,14)           180.0            estimate D2E/DX2                !
 ! D27   D(13,5,6,1)           180.0            estimate D2E/DX2                !
 ! D28   D(13,5,6,14)            0.0            estimate D2E/DX2                !
 --------------------------------------------------------------------------------
 Trust Radius=3.00D-01 FncErr=1.00D-07 GrdErr=1.00D-06 EigMax=2.50D+02 EigMin=1.00D-04
 Number of steps in this run=     73 maximum allowed number of steps=    100.
 GradGradGradGradGradGradGradGradGradGradGradGradGradGradGradGradGradGrad

                          Input orientation:                          
 ---------------------------------------------------------------------
 Center     Atomic      Atomic             Coordinates (Angstroms)
 Number     Number       Type             X           Y           Z
 ---------------------------------------------------------------------
      1          6           0        0.000000    0.000000    0.241953
      2          6           0        0.000000    1.217843   -0.429636
      3          6           0        0.000000    1.209823   -1.820708
      4          6           0        0.000000    0.000000   -2.514859
      5          6           0        0.000000   -1.209823   -1.820708
      6          6           0        0.000000   -1.217843   -0.429636
      7          7           0        0.000000    0.000000    1.722867
      8          8           0        0.000000   -1.084371    2.289496
      9          8           0        0.000000    1.084371    2.289496
     10          1           0        0.000000    2.139158    0.136877
     11          1           0        0.000000    2.149326   -2.362224
     12          1           0        0.000000    0.000000   -3.599746
     13          1           0        0.000000   -2.149326   -2.362224
     14          1           0        0.000000   -2.139158    0.136877
 ---------------------------------------------------------------------
                    Distance matrix (angstroms):
                    1          2          3          4          5
     1  C    0.000000
     2  C    1.390746   0.000000
     3  C    2.391285   1.391095   0.000000
     4  C    2.756812   2.414808   1.394818   0.000000
     5  C    2.391285   2.797971   2.419646   1.394818   0.000000
     6  C    1.390746   2.435686   2.797971   2.414808   1.391095
     7  N    1.480914   2.473138   3.744409   4.237726   3.744409
     8  O    2.316958   3.562846   4.707133   4.925209   4.112118
     9  O    2.316958   2.722406   4.112118   4.925209   4.707133
    10  H    2.141737   1.081554   2.166980   3.407008   3.879151
    11  H    3.376587   2.145357   1.084392   2.154739   3.402517
    12  H    3.841699   3.395989   2.151429   1.084887   2.151429
    13  H    3.376587   3.882361   3.402517   2.154739   1.084392
    14  H    2.141737   3.404467   3.879151   3.407008   2.166980
                    6          7          8          9         10
     6  C    0.000000
     7  N    2.473138   0.000000
     8  O    2.722406   1.223490   0.000000
     9  O    3.562846   1.223490   2.168742   0.000000
    10  H    3.404467   2.662961   3.876198   2.397153   0.000000
    11  H    3.882361   4.616012   5.665271   4.772067   2.499122
    12  H    3.395989   5.322613   5.988241   5.988241   4.305618
    13  H    2.145357   4.616012   4.772067   5.665271   4.963527
    14  H    1.081554   2.662961   2.397153   3.876198   4.278316
                   11         12         13         14
    11  H    0.000000
    12  H    2.480134   0.000000
    13  H    4.298652   2.480134   0.000000
    14  H    4.963527   4.305618   2.499122   0.000000
 Stoichiometry    C6H5NO2
 Framework group  C2V[C2(HCCN),SGV(C4H4O2)]
 Deg. of freedom    13
 Full point group                 C2V     NOp   4
 Largest Abelian subgroup         C2V     NOp   4
 Largest concise Abelian subgroup C2      NOp   2
                         Standard orientation:                         
 ---------------------------------------------------------------------
 Center     Atomic      Atomic             Coordinates (Angstroms)
 Number     Number       Type             X           Y           Z
 ---------------------------------------------------------------------
      1          6           0        0.000000   -0.000000    0.241953
      2          6           0        0.000000    1.217843   -0.429636
      3          6           0        0.000000    1.209823   -1.820708
      4          6           0        0.000000    0.000000   -2.514859
      5          6           0       -0.000000   -1.209823   -1.820708
      6          6           0       -0.000000   -1.217843   -0.429636
      7          7           0        0.000000   -0.000000    1.722867
      8          8           0        0.000000   -1.084371    2.289496
      9          8           0        0.000000    1.084371    2.289496
     10          1           0        0.000000    2.139158    0.136877
     11          1           0        0.000000    2.149326   -2.362224
     12          1           0        0.000000    0.000000   -3.599746
     13          1           0       -0.000000   -2.149326   -2.362224
     14          1           0       -0.000000   -2.139158    0.136877
 ---------------------------------------------------------------------
 Rotational constants (GHZ):           3.9833078           1.2837832           0.9708782
 General basis read from cards:  (5D, 7F)
 There are   150 symmetry adapted cartesian basis functions of A1  symmetry.
 There are    51 symmetry adapted cartesian basis functions of A2  symmetry.
 There are    68 symmetry adapted cartesian basis functions of B1  symmetry.
 There are   121 symmetry adapted cartesian basis functions of B2  symmetry.
 There are   126 symmetry adapted basis functions of A1  symmetry.
 There are    48 symmetry adapted basis functions of A2  symmetry.
 There are    62 symmetry adapted basis functions of B1  symmetry.
 There are   104 symmetry adapted basis functions of B2  symmetry.
   340 basis functions,   549 primitive gaussians,   390 cartesian basis functions
    32 alpha electrons       32 beta electrons
       nuclear repulsion energy       412.3854980639 Hartrees.
 NAtoms=   14 NActive=   14 NUniq=    9 SFac= 2.42D+00 NAtFMM=   60 NAOKFM=F Big=F
 Integral buffers will be    131072 words long.
 Raffenetti 2 integral format.
 Two-electron integral symmetry is turned on.
 One-electron integrals computed using PRISM.
 NBasis=   340 RedAO= T EigKep=  2.11D-05  NBF=   126    48    62   104
 NBsUse=   340 1.00D-06 EigRej= -1.00D+00 NBFU=   126    48    62   104
 ExpMin= 7.42D-02 ExpMax= 1.36D+04 ExpMxC= 4.64D+02 IAcc=3 IRadAn=         5 AccDes= 0.00D+00
 Harris functional with IExCor=  402 and IRadAn=       5 diagonalized for initial guess.
 HarFok:  IExCor=  402 AccDes= 0.00D+00 IRadAn=         5 IDoV= 1 UseB2=F ITyADJ=14
 ICtDFT=  3500011 ScaDFX=  1.000000  1.000000  1.000000  1.000000
 FoFCou: FMM=F IPFlag=           0 FMFlag=      100000 FMFlg1=           0
         NFxFlg=           0 DoJE=T BraDBF=F KetDBF=T FulRan=T
         wScrn=  0.000000 ICntrl=       500 IOpCl=  0 I1Cent=   200000004 NGrid=           0
         NMat0=    1 NMatS0=      1 NMatT0=    0 NMatD0=    1 NMtDS0=    0 NMtDT0=    0
 Petite list used in FoFCou.
 Initial guess orbital symmetries:
       Occupied  (A1) (B2) (A1) (A1) (B2) (A1) (B2) (A1) (A1) (A1)
                 (B2) (A1) (A1) (B2) (A1) (B2) (A1) (A1) (B2) (A1)
                 (A1) (B2) (B2) (B1) (A1) (B2) (B1) (A2) (A2) (A1)
                 (B1) (B2)
       Virtual   (B1) (A2) (B1) (A1) (B2) (A1) (B1) (B2) (A1) (A1)
                 (A1) (A1) (B1) (B2) (B2) (A1) (A2) (B2) (B1) (A1)
                 (B2) (A1) (A1) (B2) (A2) (A1) (B1) (A1) (B2) (A1)
                 (B2) (A1) (B2) (B1) (A1) (B1) (B2) (A1) (A1) (B2)
                 (A2) (A1) (B2) (A1) (B1) (B2) (A1) (B2) (B2) (A1)
                 (A1) (A1) (B2) (B1) (B2) (B2) (A1) (A2) (A2) (A1)
                 (B1) (A1) (A2) (A1) (B2) (B1) (B2) (A1) (B2) (A1)
                 (A1) (B1) (A1) (A2) (B2) (B1) (B1) (B2) (A1) (B2)
                 (A2) (A1) (B1) (A2) (B2) (A1) (B1) (A2) (B2) (B1)
                 (A1) (B2) (A1) (B2) (A2) (B1) (A1) (B2) (B1) (A2)
                 (A1) (B1) (A2) (A1) (B2) (B1) (A1) (A2) (B2) (B1)
                 (A1) (B2) (A1) (A1) (B2) (A1) (B2) (A1) (B2) (A2)
                 (A1) (B2) (A1) (B1) (B2) (A1) (B1) (B2) (A1) (A2)
                 (A1) (B1) (B2) (A1) (B2) (A1) (B2) (A1) (B2) (B2)
                 (A1) (B2) (A2) (B1) (A1) (B2) (A1) (A1) (B2) (A2)
                 (A1) (B2) (B1) (B2) (A1) (B1) (A2) (B1) (B2) (A2)
                 (A1) (A1) (B1) (B1) (A1) (A2) (B2) (B2) (A1) (A1)
                 (B2) (B1) (A2) (A1) (B2) (A1) (A1) (A2) (B2) (A1)
                 (B1) (B2) (A1) (B2) (B1) (B1) (A2) (A1) (A2) (A1)
                 (B2) (A2) (B1) (B1) (B2) (A1) (B2) (A2) (A1) (B1)
                 (B2) (A1) (A2) (A1) (B2) (B1) (A2) (A1) (B2) (A2)
                 (B1) (A2) (A1) (B2) (A1) (B1) (A2) (A1) (B2) (B1)
                 (B1) (A2) (B2) (B1) (A1) (A2) (B1) (B2) (A2) (A1)
                 (B2) (B1) (A1) (B2) (A2) (B1) (A2) (A1) (B1) (B2)
                 (A2) (A1) (B1) (B2) (A1) (A1) (B2) (B1) (B2) (A1)
                 (B1) (B2) (A1) (B2) (A1) (B2) (B2) (B1) (A1) (A1)
                 (A2) (A2) (A1) (B1) (A2) (A1) (B2) (A1) (B1) (A1)
                 (B2) (B2) (A2) (B2) (A1) (A1) (B2) (B1) (A2) (A1)
                 (B1) (B2) (A1) (B2) (A1) (A2) (B1) (B2) (A1) (A1)
                 (B2) (A1) (B2) (A1) (A2) (A1) (B1) (B2) (B2) (A1)
                 (B2) (B2) (A1) (B2) (A1) (B2) (A1) (A1)
 The electronic state of the initial guess is 1-A1.
 Requested convergence on RMS density matrix=1.00D-08 within 128 cycles.
 Requested convergence on MAX density matrix=1.00D-06.
 Requested convergence on             energy=1.00D-06.
 No special actions if energy rises.
 Integral accuracy reduced to 1.0D-05 until final iterations.
 Initial convergence to 1.0D-05 achieved.  Increase integral accuracy.
 SCF Done:  E(RB3LYP) =  -436.925216728     A.U. after   13 cycles
            NFock= 13  Conv=0.90D-08     -V/T= 2.0035

 **********************************************************************

            Population analysis using the SCF Density.

 **********************************************************************

 Orbital symmetries:
       Occupied  (B2) (A1) (A1) (A1) (B2) (A1) (A1) (B2) (A1) (A1)
                 (B2) (A1) (A1) (B2) (A1) (B2) (A1) (A1) (B1) (B2)
                 (A1) (B2) (A1) (B2) (B1) (A1) (B2) (A2) (A1) (B2)
                 (B1) (A2)
       Virtual   (B1) (A2) (B1) (A1) (B2) (A1) (A1) (B2) (A1) (B1)
                 (A1) (B1) (B2) (A1) (A2) (B2) (B1) (A1) (B2) (A1)
                 (B2) (A1) (A2) (B1) (A1) (A1) (B2) (A1) (B2) (A1)
                 (B2) (B1) (A1) (B1) (B2) (A1) (B2) (A1) (A1) (B2)
                 (A2) (A1) (B2) (B1) (A1) (B2) (A1) (A1) (B2) (A1)
                 (B2) (B2) (B2) (B1) (B2) (A1) (A1) (A1) (A2) (A2)
                 (B1) (A1) (A2) (A1) (B2) (B1) (B2) (A1) (B2) (A1)
                 (B1) (A1) (A1) (A2) (B2) (B1) (B2) (B1) (A1) (B2)
                 (A2) (A1) (B1) (B2) (A2) (A1) (B1) (A2) (B1) (B2)
                 (A1) (B2) (A1) (B2) (B1) (A2) (A1) (B2) (B1) (A2)
                 (A1) (B1) (A2) (B2) (A1) (A1) (B1) (A2) (B2) (B1)
                 (A1) (B2) (A1) (A1) (B2) (A1) (A1) (B2) (A1) (A2)
                 (B1) (B2) (B2) (B2) (A1) (A1) (B2) (B1) (A1) (B1)
                 (A2) (A1) (B2) (A1) (B2) (A1) (B2) (B2) (A1) (B2)
                 (A1) (A2) (B2) (B1) (A1) (B2) (A1) (A1) (B2) (A1)
                 (A2) (B2) (B1) (A1) (B2) (B1) (A2) (B1) (A1) (A2)
                 (A1) (B2) (B1) (B1) (A1) (A2) (B2) (B2) (A1) (A1)
                 (B1) (B2) (A2) (B2) (A1) (A1) (A2) (A1) (B2) (B1)
                 (A1) (B2) (A1) (B2) (B1) (A2) (A1) (B1) (A2) (A2)
                 (B2) (A1) (B1) (B1) (B2) (A1) (A2) (B2) (A1) (B1)
                 (B2) (A1) (A2) (A1) (B2) (B1) (A1) (B2) (A2) (A2)
                 (B1) (B2) (A1) (A2) (B1) (A1) (A2) (A1) (B2) (B1)
                 (B1) (B2) (A2) (A1) (B1) (A2) (B1) (B2) (A1) (A2)
                 (B1) (B2) (A1) (B2) (A2) (B1) (A1) (A2) (B1) (B2)
                 (A1) (A2) (B1) (B2) (A1) (B1) (A1) (B2) (A1) (B2)
                 (B1) (B2) (A1) (B2) (A1) (B2) (A2) (B1) (B2) (A1)
                 (A1) (B1) (A2) (A1) (A2) (A1) (B1) (B2) (A1) (A1)
                 (B2) (A2) (B2) (B2) (A1) (A1) (B2) (B1) (A2) (B1)
                 (A1) (B2) (A1) (B2) (A1) (A2) (B1) (B2) (A1) (A1)
                 (B2) (A1) (B2) (A1) (A2) (A1) (B1) (B2) (B2) (B2)
                 (A1) (B2) (A1) (B2) (A1) (B2) (A1) (A1)
 The electronic state is 1-A1.
 Alpha  occ. eigenvalues --  -19.16462 -19.16461 -14.56190 -10.24894 -10.21290
 Alpha  occ. eigenvalues --  -10.21290 -10.21155 -10.20889 -10.20883  -1.23983
 Alpha  occ. eigenvalues --   -1.06704  -0.90211  -0.81734  -0.78439  -0.71264
 Alpha  occ. eigenvalues --   -0.64387  -0.60912  -0.57591  -0.54790  -0.52704
 Alpha  occ. eigenvalues --   -0.52248  -0.48530  -0.47695  -0.45960  -0.40565
 Alpha  occ. eigenvalues --   -0.40107  -0.38292  -0.32758  -0.32355  -0.30813
 Alpha  occ. eigenvalues --   -0.29635  -0.29161
 Alpha virt. eigenvalues --   -0.10459  -0.04602  -0.01860   0.00367   0.02964
 Alpha virt. eigenvalues --    0.03877   0.06866   0.07093   0.09464   0.11473
 Alpha virt. eigenvalues --    0.13066   0.14456   0.15581   0.15680   0.18090
 Alpha virt. eigenvalues --    0.18260   0.18673   0.18944   0.21316   0.22714
 Alpha virt. eigenvalues --    0.23391   0.25572   0.25686   0.25931   0.26865
 Alpha virt. eigenvalues --    0.27946   0.29221   0.30035   0.30206   0.30390
 Alpha virt. eigenvalues --    0.32669   0.32823   0.33277   0.33923   0.35588
 Alpha virt. eigenvalues --    0.35925   0.37931   0.39070   0.42297   0.42674
 Alpha virt. eigenvalues --    0.42828   0.43882   0.44601   0.47597   0.49070
 Alpha virt. eigenvalues --    0.50108   0.52338   0.56387   0.57562   0.58596
 Alpha virt. eigenvalues --    0.59851   0.61568   0.62784   0.64671   0.65303
 Alpha virt. eigenvalues --    0.65418   0.68301   0.71387   0.73735   0.76394
 Alpha virt. eigenvalues --    0.76785   0.80187   0.81661   0.83565   0.84413
 Alpha virt. eigenvalues --    0.88101   0.93757   0.96502   0.97926   0.98869
 Alpha virt. eigenvalues --    1.01488   1.02316   1.05468   1.06402   1.06902
 Alpha virt. eigenvalues --    1.09529   1.11094   1.11416   1.11633   1.14382
 Alpha virt. eigenvalues --    1.16185   1.17988   1.22337   1.22437   1.22647
 Alpha virt. eigenvalues --    1.23700   1.25686   1.26650   1.26947   1.28892
 Alpha virt. eigenvalues --    1.33167   1.37113   1.38393   1.40318   1.41812
 Alpha virt. eigenvalues --    1.42731   1.43887   1.47958   1.50877   1.51692
 Alpha virt. eigenvalues --    1.51848   1.54346   1.57439   1.58262   1.58517
 Alpha virt. eigenvalues --    1.58894   1.59116   1.63135   1.63727   1.64220
 Alpha virt. eigenvalues --    1.67339   1.70580   1.74333   1.77089   1.79467
 Alpha virt. eigenvalues --    1.83664   1.85619   1.87187   1.88582   1.88992
 Alpha virt. eigenvalues --    1.90082   1.91887   1.93374   1.94153   1.96295
 Alpha virt. eigenvalues --    1.96618   1.98321   1.99666   2.00679   2.09590
 Alpha virt. eigenvalues --    2.11881   2.13137   2.13815   2.16246   2.18308
 Alpha virt. eigenvalues --    2.20650   2.21973   2.25270   2.25465   2.36087
 Alpha virt. eigenvalues --    2.43244   2.46866   2.47191   2.47477   2.49796
 Alpha virt. eigenvalues --    2.60240   2.61138   2.70370   2.72320   2.80898
 Alpha virt. eigenvalues --    2.83533   2.86210   2.88813   3.02074   3.04033
 Alpha virt. eigenvalues --    3.09835   3.12880   3.13958   3.16913   3.19804
 Alpha virt. eigenvalues --    3.20826   3.21262   3.22938   3.28360   3.30594
 Alpha virt. eigenvalues --    3.32494   3.34668   3.44223   3.46411   3.49810
 Alpha virt. eigenvalues --    3.50990   3.52813   3.55970   3.59879   3.60091
 Alpha virt. eigenvalues --    3.62526   3.67537   3.68048   3.71369   3.73300
 Alpha virt. eigenvalues --    3.78374   3.79384   3.81733   3.82634   3.85440
 Alpha virt. eigenvalues --    3.92198   3.94631   3.94660   3.96413   3.97556
 Alpha virt. eigenvalues --    3.98182   3.99449   3.99630   3.99981   4.00821
 Alpha virt. eigenvalues --    4.02695   4.03328   4.04956   4.07653   4.10229
 Alpha virt. eigenvalues --    4.13855   4.15226   4.16016   4.17762   4.19458
 Alpha virt. eigenvalues --    4.20391   4.21537   4.23654   4.25330   4.26922
 Alpha virt. eigenvalues --    4.27046   4.28838   4.29359   4.29681   4.32497
 Alpha virt. eigenvalues --    4.34335   4.34347   4.34622   4.35442   4.36724
 Alpha virt. eigenvalues --    4.40499   4.41263   4.42414   4.44894   4.45653
 Alpha virt. eigenvalues --    4.46662   4.49677   4.50144   4.51118   4.53054
 Alpha virt. eigenvalues --    4.55428   4.56413   4.57611   4.61327   4.64510
 Alpha virt. eigenvalues --    4.68685   4.71793   4.72489   4.73726   4.73898
 Alpha virt. eigenvalues --    4.80298   4.80415   4.84388   4.87983   4.88711
 Alpha virt. eigenvalues --    4.91630   4.92827   4.96586   4.99365   4.99604
 Alpha virt. eigenvalues --    5.01790   5.10013   5.10350   5.12359   5.15700
 Alpha virt. eigenvalues --    5.20515   5.22012   5.22491   5.23365   5.24983
 Alpha virt. eigenvalues --    5.28395   5.29243   5.29511   5.34383   5.34708
 Alpha virt. eigenvalues --    5.40154   5.45935   5.45996   5.47718   5.49112
 Alpha virt. eigenvalues --    5.50991   5.53916   5.55827   5.62713   5.66474
 Alpha virt. eigenvalues --    5.68876   5.71765   5.74262   5.75858   5.82969
 Alpha virt. eigenvalues --    5.84110   5.90952   5.92853   5.96914   5.99155
 Alpha virt. eigenvalues --    6.03720   6.08804   6.12813   6.18920   6.21291
 Alpha virt. eigenvalues --    6.21907   6.26631   6.33577   6.42506   6.46438
 Alpha virt. eigenvalues --    6.46618   6.47570   6.55576   6.64185   6.73440
 Alpha virt. eigenvalues --    6.77320   6.77326   7.00833   7.14518   7.43089
 Alpha virt. eigenvalues --    8.39093  10.31878  11.82356
          Condensed to atoms (all electrons):
               1          2          3          4          5          6
     1  C    5.314263   0.368992  -0.003707  -0.071666  -0.003707   0.368992
     2  C    0.368992   4.904209   0.405331  -0.020279  -0.088937   0.015018
     3  C   -0.003707   0.405331   4.909567   0.446655  -0.013233  -0.088937
     4  C   -0.071666  -0.020279   0.446655   4.844057   0.446655  -0.020279
     5  C   -0.003707  -0.088937  -0.013233   0.446655   4.909567   0.405331
     6  C    0.368992   0.015018  -0.088937  -0.020279   0.405331   4.904209
     7  N    0.360401  -0.055196   0.009416  -0.003397   0.009416  -0.055196
     8  O   -0.135671   0.023415  -0.003050   0.001654  -0.004839   0.010039
     9  O   -0.135671   0.010039  -0.004839   0.001654  -0.003050   0.023415
    10  H   -0.064216   0.464977  -0.050390   0.012628  -0.005389   0.011381
    11  H    0.010628  -0.050463   0.460553  -0.052668   0.014867  -0.005841
    12  H   -0.005619   0.015353  -0.053941   0.455329  -0.053941   0.015353
    13  H    0.010628  -0.005841   0.014867  -0.052668   0.460553  -0.050463
    14  H   -0.064216   0.011381  -0.005389   0.012628  -0.050390   0.464977
               7          8          9         10         11         12
     1  C    0.360401  -0.135671  -0.135671  -0.064216   0.010628  -0.005619
     2  C   -0.055196   0.023415   0.010039   0.464977  -0.050463   0.015353
     3  C    0.009416  -0.003050  -0.004839  -0.050390   0.460553  -0.053941
     4  C   -0.003397   0.001654   0.001654   0.012628  -0.052668   0.455329
     5  C    0.009416  -0.004839  -0.003050  -0.005389   0.014867  -0.053941
     6  C   -0.055196   0.010039   0.023415   0.011381  -0.005841   0.015353
     7  N    5.575324   0.345777   0.345777  -0.005730  -0.000081   0.000038
     8  O    0.345777   8.239365  -0.137770   0.002346  -0.000011   0.000014
     9  O    0.345777  -0.137770   8.239365   0.022118  -0.000256   0.000014
    10  H   -0.005730   0.002346   0.022118   0.557089  -0.009222   0.000107
    11  H   -0.000081  -0.000011  -0.000256  -0.009222   0.605734  -0.009755
    12  H    0.000038   0.000014   0.000014   0.000107  -0.009755   0.609619
    13  H   -0.000081  -0.000256  -0.000011   0.000012  -0.000007  -0.009755
    14  H   -0.005730   0.022118   0.002346   0.000067   0.000012   0.000107
              13         14
     1  C    0.010628  -0.064216
     2  C   -0.005841   0.011381
     3  C    0.014867  -0.005389
     4  C   -0.052668   0.012628
     5  C    0.460553  -0.050390
     6  C   -0.050463   0.464977
     7  N   -0.000081  -0.005730
     8  O   -0.000256   0.022118
     9  O   -0.000011   0.002346
    10  H    0.000012   0.000067
    11  H   -0.000007   0.000012
    12  H   -0.009755   0.000107
    13  H    0.605734  -0.009222
    14  H   -0.009222   0.557089
 Mulliken charges:
               1
     1  C    0.050570
     2  C    0.002001
     3  C   -0.022905
     4  C   -0.000305
     5  C   -0.022905
     6  C    0.002001
     7  N    0.479265
     8  O   -0.363132
     9  O   -0.363132
    10  H    0.064222
    11  H    0.036509
    12  H    0.037080
    13  H    0.036509
    14  H    0.064222
 Sum of Mulliken charges =  -0.00000
 Mulliken charges with hydrogens summed into heavy atoms:
               1
     1  C    0.050570
     2  C    0.066223
     3  C    0.013604
     4  C    0.036775
     5  C    0.013604
     6  C    0.066223
     7  N    0.479265
     8  O   -0.363132
     9  O   -0.363132
 Electronic spatial extent (au):  <R**2>=           1122.7847
 Charge=             -0.0000 electrons
 Dipole moment (field-independent basis, Debye):
    X=             -0.0000    Y=             -0.0000    Z=             -4.7867  Tot=              4.7867
 Quadrupole moment (field-independent basis, Debye-Ang):
   XX=            -53.1606   YY=            -48.2277   ZZ=            -55.9142
   XY=             -0.0000   XZ=             -0.0000   YZ=              0.0000
 Traceless Quadrupole moment (field-independent basis, Debye-Ang):
   XX=             -0.7264   YY=              4.2065   ZZ=             -3.4800
   XY=             -0.0000   XZ=             -0.0000   YZ=              0.0000
 Octapole moment (field-independent basis, Debye-Ang**2):
  XXX=              0.0000  YYY=              0.0000  ZZZ=            -30.3126  XYY=             -0.0000
  XXY=             -0.0000  XXZ=             12.9596  XZZ=             -0.0000  YZZ=             -0.0000
  YYZ=             -7.5624  XYZ=             -0.0000
 Hexadecapole moment (field-independent basis, Debye-Ang**3):
 XXXX=            -57.3255 YYYY=           -353.6658 ZZZZ=          -1019.7279 XXXY=             -0.0000
 XXXZ=             -0.0000 YYYX=             -0.0000 YYYZ=              0.0000 ZZZX=             -0.0000
 ZZZY=              0.0000 XXYY=            -79.8640 XXZZ=           -185.2286 YYZZ=           -235.0147
 XXYZ=             -0.0000 YYXZ=             -0.0000 ZZXY=             -0.0000
 N-N= 4.123854980639D+02 E-N=-1.845384992845D+03  KE= 4.353823976625D+02
 Symmetry A1   KE= 2.669076105361D+02
 Symmetry A2   KE= 7.182434294323D+00
 Symmetry B1   KE= 8.134252307727D+00
 Symmetry B2   KE= 1.531581005244D+02
 Calling FoFJK, ICntrl=      2127 FMM=F ISym2X=1 I1Cent= 0 IOpClX= 0 NMat=1 NMatS=1 NMatT=0.
 ***** Axes restored to original set *****
 -------------------------------------------------------------------
 Center     Atomic                   Forces (Hartrees/Bohr)
 Number     Number              X              Y              Z
 -------------------------------------------------------------------
      1        6          -0.000000000    0.000000000   -0.000991805
      2        6           0.000000000   -0.000944052   -0.000485172
      3        6           0.000000000   -0.000550237    0.000430147
      4        6          -0.000000000   -0.000000000    0.000777793
      5        6           0.000000000    0.000550237    0.000430147
      6        6           0.000000000    0.000944052   -0.000485172
      7        7           0.000000000    0.000000000   -0.000506641
      8        8          -0.000000000    0.002646540   -0.000683583
      9        8          -0.000000000   -0.002646540   -0.000683583
     10        1           0.000000000   -0.001661079   -0.001251760
     11        1           0.000000000   -0.002082352    0.001163335
     12        1           0.000000000    0.000000000    0.002374718
     13        1           0.000000000    0.002082352    0.001163335
     14        1           0.000000000    0.001661079   -0.001251760
 -------------------------------------------------------------------
 Cartesian Forces:  Max     0.002646540 RMS     0.001042977

 GradGradGradGradGradGradGradGradGradGradGradGradGradGradGradGradGradGrad
 Berny optimization.
 FormGI is forming the generalized inverse of G from B-inverse, IUseBI=4.
 Internal  Forces:  Max     0.003170207 RMS     0.001269143
 Search for a local minimum.
 Step number   1 out of a maximum of   73
 All quantities printed in internal units (Hartrees-Bohrs-Radians)
 Mixed Optimization -- RFO/linear search
 Second derivative matrix not updated -- first step.
 ITU=  0
     Eigenvalues ---    0.00621   0.00621   0.01741   0.02157   0.02168
     Eigenvalues ---    0.02180   0.02185   0.02197   0.02208   0.02209
     Eigenvalues ---    0.02211   0.16000   0.16000   0.16000   0.16000
     Eigenvalues ---    0.16000   0.22000   0.22000   0.23503   0.25000
     Eigenvalues ---    0.25000   0.25000   0.34465   0.35410   0.35469
     Eigenvalues ---    0.35469   0.35807   0.35807   0.42491   0.42656
     Eigenvalues ---    0.46611   0.46859   0.47129   0.47178   0.93853
     Eigenvalues ---    0.93853
 RFO step:  Lambda=-2.24416705D-04 EMin= 6.21443290D-03
 Linear search not attempted -- first point.
 Iteration  1 RMS(Cart)=  0.00474792 RMS(Int)=  0.00000144
 Iteration  2 RMS(Cart)=  0.00000190 RMS(Int)=  0.00000009
 Iteration  3 RMS(Cart)=  0.00000000 RMS(Int)=  0.00000009
 ClnCor:  largest displacement from symmetrization is 5.19D-10 for atom    12.
 Variable       Old X    -DE/DX   Delta X   Delta X   Delta X     New X
                                 (Linear)    (Quad)   (Total)
    R1        2.62813  -0.00289   0.00000  -0.00611  -0.00611   2.62202
    R2        2.62813  -0.00289   0.00000  -0.00611  -0.00611   2.62202
    R3        2.79852  -0.00187   0.00000  -0.00543  -0.00543   2.79309
    R4        2.62879  -0.00317   0.00000  -0.00672  -0.00672   2.62207
    R5        2.04384  -0.00207   0.00000  -0.00578  -0.00578   2.03806
    R6        2.63582  -0.00315   0.00000  -0.00679  -0.00679   2.62904
    R7        2.04920  -0.00239   0.00000  -0.00672  -0.00672   2.04248
    R8        2.63582  -0.00315   0.00000  -0.00679  -0.00679   2.62904
    R9        2.05014  -0.00237   0.00000  -0.00670  -0.00670   2.04344
   R10        2.62879  -0.00317   0.00000  -0.00672  -0.00672   2.62207
   R11        2.04920  -0.00239   0.00000  -0.00672  -0.00672   2.04248
   R12        2.04384  -0.00207   0.00000  -0.00578  -0.00578   2.03806
   R13        2.31206  -0.00266   0.00000  -0.00284  -0.00284   2.30923
   R14        2.31206  -0.00266   0.00000  -0.00284  -0.00284   2.30923
    A1        2.13367  -0.00007   0.00000  -0.00022  -0.00022   2.13345
    A2        2.07476   0.00004   0.00000   0.00011   0.00011   2.07487
    A3        2.07476   0.00004   0.00000   0.00011   0.00011   2.07487
    A4        2.06899  -0.00001   0.00000  -0.00001  -0.00001   2.06898
    A5        2.08633   0.00021   0.00000   0.00126   0.00126   2.08759
    A6        2.12786  -0.00019   0.00000  -0.00125  -0.00125   2.12662
    A7        2.09747   0.00002   0.00000   0.00003   0.00003   2.09750
    A8        2.08791   0.00002   0.00000   0.00019   0.00019   2.08810
    A9        2.09781  -0.00004   0.00000  -0.00022  -0.00022   2.09759
   A10        2.09979   0.00006   0.00000   0.00018   0.00018   2.09997
   A11        2.09170  -0.00003   0.00000  -0.00009  -0.00009   2.09161
   A12        2.09170  -0.00003   0.00000  -0.00009  -0.00009   2.09161
   A13        2.09747   0.00002   0.00000   0.00003   0.00003   2.09750
   A14        2.09781  -0.00004   0.00000  -0.00022  -0.00022   2.09759
   A15        2.08791   0.00002   0.00000   0.00019   0.00019   2.08810
   A16        2.06899  -0.00001   0.00000  -0.00001  -0.00001   2.06898
   A17        2.08633   0.00021   0.00000   0.00126   0.00126   2.08759
   A18        2.12786  -0.00019   0.00000  -0.00125  -0.00125   2.12662
   A19        2.05231   0.00048   0.00000   0.00191   0.00191   2.05422
   A20        2.05231   0.00048   0.00000   0.00191   0.00191   2.05422
   A21        2.17856  -0.00096   0.00000  -0.00382  -0.00382   2.17474
    D1       -0.00000   0.00000   0.00000   0.00000   0.00000   0.00000
    D2        3.14159   0.00000   0.00000   0.00000   0.00000   3.14159
    D3        3.14159   0.00000   0.00000   0.00000   0.00000   3.14159
    D4       -0.00000   0.00000   0.00000   0.00000   0.00000   0.00000
    D5        0.00000  -0.00000   0.00000  -0.00000   0.00000   0.00000
    D6        3.14159  -0.00000   0.00000  -0.00000   0.00000   3.14159
    D7        3.14159  -0.00000   0.00000  -0.00000   0.00000   3.14159
    D8        0.00000  -0.00000   0.00000  -0.00000   0.00000   0.00000
    D9        3.14159  -0.00000   0.00000  -0.00000   0.00000   3.14159
   D10       -0.00000   0.00000   0.00000   0.00000   0.00000   0.00000
   D11        0.00000  -0.00000   0.00000  -0.00000   0.00000   0.00000
   D12        3.14159   0.00000   0.00000   0.00000   0.00000   3.14159
   D13        0.00000   0.00000   0.00000   0.00000   0.00000   0.00000
   D14        3.14159  -0.00000   0.00000  -0.00000   0.00000   3.14159
   D15        3.14159   0.00000   0.00000   0.00000   0.00000   3.14159
   D16        0.00000   0.00000   0.00000   0.00000  -0.00000   0.00000
   D17        0.00000  -0.00000   0.00000  -0.00000   0.00000   0.00000
   D18        3.14159  -0.00000   0.00000  -0.00000   0.00000   3.14159
   D19        3.14159  -0.00000   0.00000  -0.00000   0.00000   3.14159
   D20        0.00000  -0.00000   0.00000  -0.00000   0.00000   0.00000
   D21       -0.00000   0.00000   0.00000   0.00000   0.00000   0.00000
   D22        3.14159   0.00000   0.00000   0.00000   0.00000   3.14159
   D23        3.14159   0.00000   0.00000   0.00000   0.00000   3.14159
   D24       -0.00000   0.00000   0.00000   0.00000   0.00000   0.00000
   D25       -0.00000   0.00000   0.00000   0.00000   0.00000   0.00000
   D26        3.14159  -0.00000   0.00000  -0.00000   0.00000   3.14159
   D27        3.14159   0.00000   0.00000   0.00000   0.00000   3.14159
   D28        0.00000  -0.00000   0.00000  -0.00000   0.00000   0.00000
         Item               Value     Threshold  Converged?
 Maximum Force            0.003170     0.000450     NO 
 RMS     Force            0.001269     0.000300     NO 
 Maximum Displacement     0.015072     0.001800     NO 
 RMS     Displacement     0.004748     0.001200     NO 
 Predicted change in Energy=-1.122682D-04
 GradGradGradGradGradGradGradGradGradGradGradGradGradGradGradGradGradGrad

                          Input orientation:                          
 ---------------------------------------------------------------------
 Center     Atomic      Atomic             Coordinates (Angstroms)
 Number     Number       Type             X           Y           Z
 ---------------------------------------------------------------------
      1          6           0       -0.000000   -0.000000    0.239501
      2          6           0        0.000000    1.214938   -0.430662
      3          6           0        0.000000    1.206771   -1.818175
      4          6           0        0.000000   -0.000000   -2.510430
      5          6           0       -0.000000   -1.206771   -1.818175
      6          6           0       -0.000000   -1.214938   -0.430662
      7          7           0       -0.000000   -0.000000    1.717540
      8          8           0       -0.000000   -1.081959    2.285541
      9          8           0       -0.000000    1.081959    2.285541
     10          1           0        0.000000    2.134420    0.132993
     11          1           0        0.000000    2.143025   -2.358205
     12          1           0        0.000000   -0.000000   -3.591770
     13          1           0       -0.000000   -2.143025   -2.358205
     14          1           0       -0.000000   -2.134420    0.132993
 ---------------------------------------------------------------------
                    Distance matrix (angstroms):
                    1          2          3          4          5
     1  C    0.000000
     2  C    1.387513   0.000000
     3  C    2.385440   1.387537   0.000000
     4  C    2.749931   2.408632   1.391227   0.000000
     5  C    2.385440   2.791033   2.413542   1.391227   0.000000
     6  C    1.387513   2.429876   2.791033   2.408632   1.387537
     7  N    1.478039   2.467964   3.735984   4.227970   3.735984
     8  O    2.314500   3.557174   4.698804   4.916499   4.105613
     9  O    2.314500   2.719455   4.105613   4.916499   4.698804
    10  H    2.137075   1.078495   2.160460   3.397562   3.869187
    11  H    3.367586   2.139339   1.080836   2.148425   3.393047
    12  H    3.831271   3.386544   2.145213   1.081340   2.145213
    13  H    3.367586   3.871866   3.393047   2.148425   1.080836
    14  H    2.137075   3.396454   3.869187   3.397562   2.160460
                    6          7          8          9         10
     6  C    0.000000
     7  N    2.467964   0.000000
     8  O    2.719455   1.221990   0.000000
     9  O    3.557174   1.221990   2.163917   0.000000
    10  H    3.396454   2.658296   3.870213   2.396067   0.000000
    11  H    3.871866   4.604808   5.653751   4.763427   2.491213
    12  H    3.386544   5.309310   5.976070   5.976070   4.292972
    13  H    2.139339   4.604808   4.763427   5.653751   4.950010
    14  H    1.078495   2.658296   2.396067   3.870213   4.268839
                   11         12         13         14
    11  H    0.000000
    12  H    2.472699   0.000000
    13  H    4.286051   2.472699   0.000000
    14  H    4.950010   4.292972   2.491213   0.000000
 Stoichiometry    C6H5NO2
 Framework group  C2V[C2(HCCN),SGV(C4H4O2)]
 Deg. of freedom    13
 Full point group                 C2V     NOp   4
 Largest Abelian subgroup         C2V     NOp   4
 Largest concise Abelian subgroup C2      NOp   2
                         Standard orientation:                         
 ---------------------------------------------------------------------
 Center     Atomic      Atomic             Coordinates (Angstroms)
 Number     Number       Type             X           Y           Z
 ---------------------------------------------------------------------
      1          6           0       -0.000000   -0.000000    0.240476
      2          6           0        0.000000    1.214938   -0.429687
      3          6           0        0.000000    1.206771   -1.817200
      4          6           0        0.000000    0.000000   -2.509455
      5          6           0       -0.000000   -1.206771   -1.817200
      6          6           0       -0.000000   -1.214938   -0.429687
      7          7           0       -0.000000   -0.000000    1.718515
      8          8           0       -0.000000   -1.081959    2.286515
      9          8           0        0.000000    1.081959    2.286515
     10          1           0        0.000000    2.134420    0.133967
     11          1           0        0.000000    2.143025   -2.357231
     12          1           0        0.000000    0.000000   -3.590796
     13          1           0       -0.000000   -2.143025   -2.357231
     14          1           0       -0.000000   -2.134420    0.133967
 ---------------------------------------------------------------------
 Rotational constants (GHZ):           4.0025245           1.2883583           0.9746362
 Basis read from rwf:  (5D, 7F)
 There are   150 symmetry adapted cartesian basis functions of A1  symmetry.
 There are    51 symmetry adapted cartesian basis functions of A2  symmetry.
 There are    68 symmetry adapted cartesian basis functions of B1  symmetry.
 There are   121 symmetry adapted cartesian basis functions of B2  symmetry.
 There are   126 symmetry adapted basis functions of A1  symmetry.
 There are    48 symmetry adapted basis functions of A2  symmetry.
 There are    62 symmetry adapted basis functions of B1  symmetry.
 There are   104 symmetry adapted basis functions of B2  symmetry.
   340 basis functions,   549 primitive gaussians,   390 cartesian basis functions
    32 alpha electrons       32 beta electrons
       nuclear repulsion energy       413.2341153989 Hartrees.
 NAtoms=   14 NActive=   14 NUniq=    9 SFac= 2.42D+00 NAtFMM=   60 NAOKFM=F Big=F
 Integral buffers will be    131072 words long.
 Raffenetti 2 integral format.
 Two-electron integral symmetry is turned on.
 One-electron integrals computed using PRISM.
 NBasis=   340 RedAO= T EigKep=  2.07D-05  NBF=   126    48    62   104
 NBsUse=   340 1.00D-06 EigRej= -1.00D+00 NBFU=   126    48    62   104
 Initial guess from the checkpoint file:  "/wrk/irikura/Gau-22327.chk"
 B after Tr=     0.000000    0.000000   -0.000000
         Rot=    1.000000    0.000000    0.000000    0.000000 Ang=   0.00 deg.
 Initial guess orbital symmetries:
       Occupied  (B2) (A1) (A1) (A1) (B2) (A1) (A1) (B2) (A1) (A1)
                 (B2) (A1) (A1) (B2) (A1) (B2) (A1) (A1) (B1) (B2)
                 (A1) (B2) (A1) (B2) (B1) (A1) (B2) (A2) (A1) (B2)
                 (B1) (A2)
       Virtual   (B1) (A2) (B1) (A1) (B2) (A1) (A1) (B2) (A1) (B1)
                 (A1) (B1) (B2) (A1) (A2) (B2) (B1) (A1) (B2) (A1)
                 (B2) (A1) (A2) (B1) (A1) (A1) (B2) (A1) (B2) (A1)
                 (B2) (B1) (A1) (B1) (B2) (A1) (B2) (A1) (A1) (B2)
                 (A2) (A1) (B2) (B1) (A1) (B2) (A1) (A1) (B2) (A1)
                 (B2) (B2) (B2) (B1) (B2) (A1) (A1) (A1) (A2) (A2)
                 (B1) (A1) (A2) (A1) (B2) (B1) (B2) (A1) (B2) (A1)
                 (B1) (A1) (A1) (A2) (B2) (B1) (B2) (B1) (A1) (B2)
                 (A2) (A1) (B1) (B2) (A2) (A1) (B1) (A2) (B1) (B2)
                 (A1) (B2) (A1) (B2) (B1) (A2) (A1) (B2) (B1) (A2)
                 (A1) (B1) (A2) (B2) (A1) (A1) (B1) (A2) (B2) (B1)
                 (A1) (B2) (A1) (A1) (B2) (A1) (A1) (B2) (A1) (A2)
                 (B1) (B2) (B2) (B2) (A1) (A1) (B2) (B1) (A1) (B1)
                 (A2) (A1) (B2) (A1) (B2) (A1) (B2) (B2) (A1) (B2)
                 (A1) (A2) (B2) (B1) (A1) (B2) (A1) (A1) (B2) (A1)
                 (A2) (B2) (B1) (A1) (B2) (B1) (A2) (B1) (A1) (A2)
                 (A1) (B2) (B1) (B1) (A1) (A2) (B2) (B2) (A1) (A1)
                 (B1) (B2) (A2) (B2) (A1) (A1) (A2) (A1) (B2) (B1)
                 (A1) (B2) (A1) (B2) (B1) (A2) (A1) (B1) (A2) (A2)
                 (B2) (A1) (B1) (B1) (B2) (A1) (A2) (B2) (A1) (B1)
                 (B2) (A1) (A2) (A1) (B2) (B1) (A1) (B2) (A2) (A2)
                 (B1) (B2) (A1) (A2) (B1) (A1) (A2) (A1) (B2) (B1)
                 (B1) (B2) (A2) (A1) (B1) (A2) (B1) (B2) (A1) (A2)
                 (B1) (B2) (A1) (B2) (A2) (B1) (A1) (A2) (B1) (B2)
                 (A1) (A2) (B1) (B2) (A1) (B1) (A1) (B2) (A1) (B2)
                 (B1) (B2) (A1) (B2) (A1) (B2) (A2) (B1) (B2) (A1)
                 (A1) (B1) (A2) (A1) (A2) (A1) (B1) (B2) (A1) (A1)
                 (B2) (A2) (B2) (B2) (A1) (A1) (B2) (B1) (A2) (B1)
                 (A1) (B2) (A1) (B2) (A1) (A2) (B1) (B2) (A1) (A1)
                 (B2) (A1) (B2) (A1) (A2) (A1) (B1) (B2) (B2) (B2)
                 (A1) (B2) (A1) (B2) (A1) (B2) (A1) (A1)
 Requested convergence on RMS density matrix=1.00D-08 within 128 cycles.
 Requested convergence on MAX density matrix=1.00D-06.
 Requested convergence on             energy=1.00D-06.
 No special actions if energy rises.
 SCF Done:  E(RB3LYP) =  -436.925321661     A.U. after    9 cycles
            NFock=  9  Conv=0.29D-08     -V/T= 2.0033
 Calling FoFJK, ICntrl=      2127 FMM=F ISym2X=1 I1Cent= 0 IOpClX= 0 NMat=1 NMatS=1 NMatT=0.
 ***** Axes restored to original set *****
 -------------------------------------------------------------------
 Center     Atomic                   Forces (Hartrees/Bohr)
 Number     Number              X              Y              Z
 -------------------------------------------------------------------
      1        6          -0.000000000   -0.000000000    0.000692375
      2        6           0.000000000    0.000061362    0.000126179
      3        6           0.000000000    0.000252769   -0.000119914
      4        6          -0.000000000   -0.000000000   -0.000276219
      5        6           0.000000000   -0.000252769   -0.000119914
      6        6           0.000000000   -0.000061362    0.000126179
      7        7           0.000000000   -0.000000000    0.000274680
      8        8          -0.000000000   -0.000029108   -0.000251531
      9        8          -0.000000000    0.000029108   -0.000251531
     10        1           0.000000000    0.000094136   -0.000007618
     11        1           0.000000000    0.000068254   -0.000048197
     12        1           0.000000000   -0.000000000   -0.000088675
     13        1           0.000000000   -0.000068254   -0.000048197
     14        1           0.000000000   -0.000094136   -0.000007618
 -------------------------------------------------------------------
 Cartesian Forces:  Max     0.000692375 RMS     0.000153912

 GradGradGradGradGradGradGradGradGradGradGradGradGradGradGradGradGradGrad
 Berny optimization.
 Using GEDIIS/GDIIS optimizer.
 FormGI is forming the generalized inverse of G from B-inverse, IUseBI=4.
 Internal  Forces:  Max     0.000363683 RMS     0.000125165
 Search for a local minimum.
 Step number   2 out of a maximum of   73
 All quantities printed in internal units (Hartrees-Bohrs-Radians)
 Mixed Optimization -- En-DIIS/RFO-DIIS
 Update second derivatives using D2CorX and points    1    2
 DE= -1.05D-04 DEPred=-1.12D-04 R= 9.35D-01
 TightC=F SS=  1.41D+00  RLast= 2.31D-02 DXNew= 5.0454D-01 6.9273D-02
 Trust test= 9.35D-01 RLast= 2.31D-02 DXMaxT set to 3.00D-01
 ITU=  1  0
 Use linear search instead of GDIIS.
     Eigenvalues ---    0.00621   0.00621   0.01741   0.02157   0.02168
     Eigenvalues ---    0.02180   0.02185   0.02197   0.02208   0.02209
     Eigenvalues ---    0.02211   0.15953   0.16000   0.16000   0.16000
     Eigenvalues ---    0.16000   0.22000   0.22000   0.23474   0.25000
     Eigenvalues ---    0.25000   0.25294   0.33837   0.35426   0.35469
     Eigenvalues ---    0.35566   0.35807   0.35902   0.42480   0.42639
     Eigenvalues ---    0.46611   0.47017   0.47178   0.50865   0.93070
     Eigenvalues ---    0.93853
 RFO step:  Lambda=-1.42995612D-06 EMin= 6.21443290D-03
 Quartic linear search produced a step of -0.06321.
 Iteration  1 RMS(Cart)=  0.00035715 RMS(Int)=  0.00000010
 Iteration  2 RMS(Cart)=  0.00000011 RMS(Int)=  0.00000001
 ClnCor:  largest displacement from symmetrization is 6.43D-12 for atom     9.
 Variable       Old X    -DE/DX   Delta X   Delta X   Delta X     New X
                                 (Linear)    (Quad)   (Total)
    R1        2.62202   0.00031   0.00039   0.00018   0.00056   2.62258
    R2        2.62202   0.00031   0.00039   0.00018   0.00056   2.62258
    R3        2.79309  -0.00023   0.00034  -0.00100  -0.00066   2.79243
    R4        2.62207   0.00035   0.00043   0.00022   0.00065   2.62271
    R5        2.03806   0.00008   0.00037  -0.00021   0.00016   2.03822
    R6        2.62904   0.00031   0.00043   0.00016   0.00058   2.62962
    R7        2.04248   0.00008   0.00042  -0.00025   0.00017   2.04266
    R8        2.62904   0.00031   0.00043   0.00016   0.00058   2.62962
    R9        2.04344   0.00009   0.00042  -0.00024   0.00019   2.04362
   R10        2.62207   0.00035   0.00043   0.00022   0.00065   2.62271
   R11        2.04248   0.00008   0.00042  -0.00025   0.00017   2.04266
   R12        2.03806   0.00008   0.00037  -0.00021   0.00016   2.03822
   R13        2.30923  -0.00009   0.00018  -0.00029  -0.00011   2.30912
   R14        2.30923  -0.00009   0.00018  -0.00029  -0.00011   2.30912
    A1        2.13345  -0.00012   0.00001  -0.00051  -0.00049   2.13295
    A2        2.07487   0.00006  -0.00001   0.00025   0.00025   2.07512
    A3        2.07487   0.00006  -0.00001   0.00025   0.00025   2.07512
    A4        2.06898   0.00008   0.00000   0.00032   0.00033   2.06931
    A5        2.08759   0.00002  -0.00008   0.00026   0.00018   2.08777
    A6        2.12662  -0.00010   0.00008  -0.00058  -0.00050   2.12611
    A7        2.09750   0.00000  -0.00000   0.00002   0.00002   2.09751
    A8        2.08810   0.00001  -0.00001   0.00005   0.00004   2.08813
    A9        2.09759  -0.00001   0.00001  -0.00007  -0.00006   2.09754
   A10        2.09997  -0.00005  -0.00001  -0.00018  -0.00019   2.09978
   A11        2.09161   0.00002   0.00001   0.00009   0.00009   2.09170
   A12        2.09161   0.00002   0.00001   0.00009   0.00009   2.09170
   A13        2.09750   0.00000  -0.00000   0.00002   0.00002   2.09751
   A14        2.09759  -0.00001   0.00001  -0.00007  -0.00006   2.09754
   A15        2.08810   0.00001  -0.00001   0.00005   0.00004   2.08813
   A16        2.06898   0.00008   0.00000   0.00032   0.00033   2.06931
   A17        2.08759   0.00002  -0.00008   0.00026   0.00018   2.08777
   A18        2.12662  -0.00010   0.00008  -0.00058  -0.00050   2.12611
   A19        2.05422  -0.00018  -0.00012  -0.00055  -0.00067   2.05356
   A20        2.05422  -0.00018  -0.00012  -0.00055  -0.00067   2.05356
   A21        2.17474   0.00036   0.00024   0.00109   0.00133   2.17607
    D1       -0.00000   0.00000   0.00000   0.00000   0.00000   0.00000
    D2        3.14159   0.00000   0.00000   0.00000   0.00000   3.14159
    D3        3.14159   0.00000   0.00000   0.00000   0.00000   3.14159
    D4       -0.00000   0.00000   0.00000   0.00000   0.00000   0.00000
    D5        0.00000  -0.00000   0.00000  -0.00000   0.00000   0.00000
    D6        3.14159  -0.00000   0.00000  -0.00000   0.00000   3.14159
    D7        3.14159  -0.00000   0.00000  -0.00000   0.00000   3.14159
    D8        0.00000  -0.00000   0.00000  -0.00000  -0.00000   0.00000
    D9        3.14159  -0.00000   0.00000  -0.00000   0.00000   3.14159
   D10       -0.00000   0.00000   0.00000   0.00000   0.00000   0.00000
   D11        0.00000  -0.00000   0.00000  -0.00000   0.00000   0.00000
   D12        3.14159   0.00000   0.00000   0.00000   0.00000   3.14159
   D13        0.00000   0.00000   0.00000   0.00000   0.00000   0.00000
   D14        3.14159  -0.00000   0.00000  -0.00000   0.00000   3.14159
   D15        3.14159   0.00000   0.00000   0.00000   0.00000   3.14159
   D16       -0.00000   0.00000   0.00000   0.00000   0.00000   0.00000
   D17        0.00000  -0.00000   0.00000  -0.00000   0.00000   0.00000
   D18        3.14159  -0.00000   0.00000  -0.00000   0.00000   3.14159
   D19        3.14159  -0.00000   0.00000  -0.00000   0.00000   3.14159
   D20        0.00000  -0.00000   0.00000  -0.00000  -0.00000   0.00000
   D21       -0.00000   0.00000   0.00000   0.00000   0.00000   0.00000
   D22        3.14159   0.00000   0.00000   0.00000   0.00000   3.14159
   D23        3.14159   0.00000   0.00000   0.00000   0.00000   3.14159
   D24       -0.00000   0.00000   0.00000   0.00000   0.00000   0.00000
   D25        0.00000   0.00000   0.00000   0.00000  -0.00000   0.00000
   D26        3.14159  -0.00000   0.00000  -0.00000   0.00000   3.14159
   D27        3.14159   0.00000   0.00000   0.00000   0.00000   3.14159
   D28       -0.00000  -0.00000   0.00000  -0.00000   0.00000   0.00000
         Item               Value     Threshold  Converged?
 Maximum Force            0.000364     0.000450     YES
 RMS     Force            0.000125     0.000300     YES
 Maximum Displacement     0.001402     0.001800     YES
 RMS     Displacement     0.000357     0.001200     YES
 Predicted change in Energy=-1.201356D-06
 Optimization completed.
    -- Stationary point found.
                           ----------------------------
                           !   Optimized Parameters   !
                           ! (Angstroms and Degrees)  !
 --------------------------                            --------------------------
 ! Name  Definition              Value          Derivative Info.                !
 --------------------------------------------------------------------------------
 ! R1    R(1,2)                  1.3875         -DE/DX =    0.0003              !
 ! R2    R(1,6)                  1.3875         -DE/DX =    0.0003              !
 ! R3    R(1,7)                  1.478          -DE/DX =   -0.0002              !
 ! R4    R(2,3)                  1.3875         -DE/DX =    0.0004              !
 ! R5    R(2,10)                 1.0785         -DE/DX =    0.0001              !
 ! R6    R(3,4)                  1.3912         -DE/DX =    0.0003              !
 ! R7    R(3,11)                 1.0808         -DE/DX =    0.0001              !
 ! R8    R(4,5)                  1.3912         -DE/DX =    0.0003              !
 ! R9    R(4,12)                 1.0813         -DE/DX =    0.0001              !
 ! R10   R(5,6)                  1.3875         -DE/DX =    0.0004              !
 ! R11   R(5,13)                 1.0808         -DE/DX =    0.0001              !
 ! R12   R(6,14)                 1.0785         -DE/DX =    0.0001              !
 ! R13   R(7,8)                  1.222          -DE/DX =   -0.0001              !
 ! R14   R(7,9)                  1.222          -DE/DX =   -0.0001              !
 ! A1    A(2,1,6)              122.2375         -DE/DX =   -0.0001              !
 ! A2    A(2,1,7)              118.8812         -DE/DX =    0.0001              !
 ! A3    A(6,1,7)              118.8812         -DE/DX =    0.0001              !
 ! A4    A(1,2,3)              118.544          -DE/DX =    0.0001              !
 ! A5    A(1,2,10)             119.6099         -DE/DX =    0.0                 !
 ! A6    A(3,2,10)             121.8461         -DE/DX =   -0.0001              !
 ! A7    A(2,3,4)              120.1777         -DE/DX =    0.0                 !
 ! A8    A(2,3,11)             119.639          -DE/DX =    0.0                 !
 ! A9    A(4,3,11)             120.1833         -DE/DX =    0.0                 !
 ! A10   A(3,4,5)              120.3192         -DE/DX =    0.0                 !
 ! A11   A(3,4,12)             119.8404         -DE/DX =    0.0                 !
 ! A12   A(5,4,12)             119.8404         -DE/DX =    0.0                 !
 ! A13   A(4,5,6)              120.1777         -DE/DX =    0.0                 !
 ! A14   A(4,5,13)             120.1833         -DE/DX =    0.0                 !
 ! A15   A(6,5,13)             119.639          -DE/DX =    0.0                 !
 ! A16   A(1,6,5)              118.544          -DE/DX =    0.0001              !
 ! A17   A(1,6,14)             119.6099         -DE/DX =    0.0                 !
 ! A18   A(5,6,14)             121.8461         -DE/DX =   -0.0001              !
 ! A19   A(1,7,8)              117.6983         -DE/DX =   -0.0002              !
 ! A20   A(1,7,9)              117.6983         -DE/DX =   -0.0002              !
 ! A21   A(8,7,9)              124.6034         -DE/DX =    0.0004              !
 ! D1    D(6,1,2,3)              0.0            -DE/DX =    0.0                 !
 ! D2    D(6,1,2,10)           180.0            -DE/DX =    0.0                 !
 ! D3    D(7,1,2,3)            180.0            -DE/DX =    0.0                 !
 ! D4    D(7,1,2,10)             0.0            -DE/DX =    0.0                 !
 ! D5    D(2,1,6,5)              0.0            -DE/DX =    0.0                 !
 ! D6    D(2,1,6,14)           180.0            -DE/DX =    0.0                 !
 ! D7    D(7,1,6,5)            180.0            -DE/DX =    0.0                 !
 ! D8    D(7,1,6,14)             0.0            -DE/DX =    0.0                 !
 ! D9    D(2,1,7,8)            180.0            -DE/DX =    0.0                 !
 ! D10   D(2,1,7,9)              0.0            -DE/DX =    0.0                 !
 ! D11   D(6,1,7,8)              0.0            -DE/DX =    0.0                 !
 ! D12   D(6,1,7,9)            180.0            -DE/DX =    0.0                 !
 ! D13   D(1,2,3,4)              0.0            -DE/DX =    0.0                 !
 ! D14   D(1,2,3,11)           180.0            -DE/DX =    0.0                 !
 ! D15   D(10,2,3,4)           180.0            -DE/DX =    0.0                 !
 ! D16   D(10,2,3,11)            0.0            -DE/DX =    0.0                 !
 ! D17   D(2,3,4,5)              0.0            -DE/DX =    0.0                 !
 ! D18   D(2,3,4,12)           180.0            -DE/DX =    0.0                 !
 ! D19   D(11,3,4,5)           180.0            -DE/DX =    0.0                 !
 ! D20   D(11,3,4,12)            0.0            -DE/DX =    0.0                 !
 ! D21   D(3,4,5,6)              0.0            -DE/DX =    0.0                 !
 ! D22   D(3,4,5,13)           180.0            -DE/DX =    0.0                 !
 ! D23   D(12,4,5,6)           180.0            -DE/DX =    0.0                 !
 ! D24   D(12,4,5,13)            0.0            -DE/DX =    0.0                 !
 ! D25   D(4,5,6,1)              0.0            -DE/DX =    0.0                 !
 ! D26   D(4,5,6,14)           180.0            -DE/DX =    0.0                 !
 ! D27   D(13,5,6,1)           180.0            -DE/DX =    0.0                 !
 ! D28   D(13,5,6,14)            0.0            -DE/DX =    0.0                 !
 --------------------------------------------------------------------------------
 GradGradGradGradGradGradGradGradGradGradGradGradGradGradGradGradGradGrad

                          Input orientation:                          
 ---------------------------------------------------------------------
 Center     Atomic      Atomic             Coordinates (Angstroms)
 Number     Number       Type             X           Y           Z
 ---------------------------------------------------------------------
      1          6           0       -0.000000    0.000000    0.239501
      2          6           0        0.000000    1.214938   -0.430662
      3          6           0        0.000000    1.206771   -1.818175
      4          6           0        0.000000   -0.000000   -2.510430
      5          6           0       -0.000000   -1.206771   -1.818175
      6          6           0       -0.000000   -1.214938   -0.430662
      7          7           0       -0.000000    0.000000    1.717540
      8          8           0       -0.000000   -1.081959    2.285541
      9          8           0       -0.000000    1.081959    2.285541
     10          1           0        0.000000    2.134420    0.132993
     11          1           0        0.000000    2.143025   -2.358205
     12          1           0        0.000000   -0.000000   -3.591770
     13          1           0       -0.000000   -2.143025   -2.358205
     14          1           0       -0.000000   -2.134420    0.132993
 ---------------------------------------------------------------------
                    Distance matrix (angstroms):
                    1          2          3          4          5
     1  C    0.000000
     2  C    1.387513   0.000000
     3  C    2.385440   1.387537   0.000000
     4  C    2.749931   2.408632   1.391227   0.000000
     5  C    2.385440   2.791033   2.413542   1.391227   0.000000
[...]
   D16       -0.00000   0.00000   0.00000   0.00000   0.00000   0.00000
   D17        0.00000  -0.00000   0.00000  -0.00000   0.00000   0.00000
   D18        3.14159  -0.00000   0.00000  -0.00000   0.00000   3.14159
   D19        3.14159  -0.00000   0.00000  -0.00000   0.00000   3.14159
   D20        0.00000  -0.00000   0.00000  -0.00000   0.00000   0.00000
   D21       -0.00000   0.00000   0.00000   0.00000   0.00000   0.00000
   D22        3.14159   0.00000   0.00000   0.00000   0.00000   3.14159
   D23        3.14159   0.00000   0.00000   0.00000   0.00000   3.14159
   D24       -0.00000  -0.00000   0.00000   0.00000   0.00000   0.00000
   D25        0.00000   0.00000   0.00000   0.00000   0.00000   0.00000
   D26        3.14159  -0.00000   0.00000   0.00000   0.00000   3.14159
   D27        3.14159   0.00000   0.00000   0.00000   0.00000   3.14159
   D28        0.00000  -0.00000   0.00000   0.00000  -0.00000   0.00000
         Item               Value     Threshold  Converged?
 Maximum Force            0.000364     0.000450     YES
 RMS     Force            0.000125     0.000300     YES
 Maximum Displacement     0.001818     0.001800     NO 
 RMS     Displacement     0.000414     0.001200     YES
 Predicted change in Energy=-1.276574D-06
                           ----------------------------
                           ! Non-Optimized Parameters !
                           ! (Angstroms and Degrees)  !
 --------------------------                            --------------------------
 ! Name  Definition              Value          Derivative Info.                !
 --------------------------------------------------------------------------------
 ! R1    R(1,2)                  1.3879         -DE/DX =    0.0003              !
 ! R2    R(1,6)                  1.3879         -DE/DX =    0.0003              !
 ! R3    R(1,7)                  1.4775         -DE/DX =   -0.0002              !
 ! R4    R(2,3)                  1.3879         -DE/DX =    0.0004              !
 ! R5    R(2,10)                 1.0786         -DE/DX =    0.0001              !
 ! R6    R(3,4)                  1.3916         -DE/DX =    0.0003              !
 ! R7    R(3,11)                 1.0809         -DE/DX =    0.0001              !
 ! R8    R(4,5)                  1.3916         -DE/DX =    0.0003              !
 ! R9    R(4,12)                 1.0815         -DE/DX =    0.0001              !
 ! R10   R(5,6)                  1.3879         -DE/DX =    0.0004              !
 ! R11   R(5,13)                 1.0809         -DE/DX =    0.0001              !
 ! R12   R(6,14)                 1.0786         -DE/DX =    0.0001              !
 ! R13   R(7,8)                  1.2219         -DE/DX =   -0.0001              !
 ! R14   R(7,9)                  1.2219         -DE/DX =   -0.0001              !
 ! A1    A(2,1,6)              122.1885         -DE/DX =   -0.0001              !
 ! A2    A(2,1,7)              118.9058         -DE/DX =    0.0001              !
 ! A3    A(6,1,7)              118.9058         -DE/DX =    0.0001              !
 ! A4    A(1,2,3)              118.575          -DE/DX =    0.0001              !
 ! A5    A(1,2,10)             119.6282         -DE/DX =    0.0                 !
 ! A6    A(3,2,10)             121.7968         -DE/DX =   -0.0001              !
 ! A7    A(2,3,4)              120.1799         -DE/DX =    0.0                 !
 ! A8    A(2,3,11)             119.6364         -DE/DX =    0.0                 !
 ! A9    A(4,3,11)             120.1837         -DE/DX =    0.0                 !
 ! A10   A(3,4,5)              120.3018         -DE/DX =    0.0                 !
 ! A11   A(3,4,12)             119.8491         -DE/DX =    0.0                 !
 ! A12   A(5,4,12)             119.8491         -DE/DX =    0.0                 !
 ! A13   A(4,5,6)              120.1799         -DE/DX =    0.0                 !
 ! A14   A(4,5,13)             120.1837         -DE/DX =    0.0                 !
 ! A15   A(6,5,13)             119.6364         -DE/DX =    0.0                 !
 ! A16   A(1,6,5)              118.575          -DE/DX =    0.0001              !
 ! A17   A(1,6,14)             119.6282         -DE/DX =    0.0                 !
 ! A18   A(5,6,14)             121.7968         -DE/DX =   -0.0001              !
 ! A19   A(1,7,8)              117.6703         -DE/DX =   -0.0002              !
 ! A20   A(1,7,9)              117.6703         -DE/DX =   -0.0002              !
 ! A21   A(8,7,9)              124.6595         -DE/DX =    0.0004              !
 ! D1    D(6,1,2,3)              0.0            -DE/DX =    0.0                 !
 ! D2    D(6,1,2,10)           180.0            -DE/DX =    0.0                 !
 ! D3    D(7,1,2,3)            180.0            -DE/DX =    0.0                 !
 ! D4    D(7,1,2,10)             0.0            -DE/DX =    0.0                 !
 ! D5    D(2,1,6,5)              0.0            -DE/DX =    0.0                 !
 ! D6    D(2,1,6,14)           180.0            -DE/DX =    0.0                 !
 ! D7    D(7,1,6,5)            180.0            -DE/DX =    0.0                 !
 ! D8    D(7,1,6,14)             0.0            -DE/DX =    0.0                 !
 ! D9    D(2,1,7,8)            180.0            -DE/DX =    0.0                 !
 ! D10   D(2,1,7,9)              0.0            -DE/DX =    0.0                 !
 ! D11   D(6,1,7,8)              0.0            -DE/DX =    0.0                 !
 ! D12   D(6,1,7,9)            180.0            -DE/DX =    0.0                 !
 ! D13   D(1,2,3,4)              0.0            -DE/DX =    0.0                 !
 ! D14   D(1,2,3,11)           180.0            -DE/DX =    0.0                 !
 ! D15   D(10,2,3,4)           180.0            -DE/DX =    0.0                 !
 ! D16   D(10,2,3,11)            0.0            -DE/DX =    0.0                 !
 ! D17   D(2,3,4,5)              0.0            -DE/DX =    0.0                 !
 ! D18   D(2,3,4,12)           180.0            -DE/DX =    0.0                 !
 ! D19   D(11,3,4,5)           180.0            -DE/DX =    0.0                 !
 ! D20   D(11,3,4,12)            0.0            -DE/DX =    0.0                 !
 ! D21   D(3,4,5,6)              0.0            -DE/DX =    0.0                 !
 ! D22   D(3,4,5,13)           180.0            -DE/DX =    0.0                 !
 ! D23   D(12,4,5,6)           180.0            -DE/DX =    0.0                 !
 ! D24   D(12,4,5,13)            0.0            -DE/DX =    0.0                 !
 ! D25   D(4,5,6,1)              0.0            -DE/DX =    0.0                 !
 ! D26   D(4,5,6,14)           180.0            -DE/DX =    0.0                 !
 ! D27   D(13,5,6,1)           180.0            -DE/DX =    0.0                 !
 ! D28   D(13,5,6,14)            0.0            -DE/DX =    0.0                 !
 --------------------------------------------------------------------------------
 GradGradGradGradGradGradGradGradGradGradGradGradGradGradGradGradGradGrad


 ----------------------------------------------------------------------

 Electric dipole moment (input orientation):
 (Debye = 10**-18 statcoulomb cm , SI units = C m)
                  (au)            (Debye)         (10**-30 SI)
   Tot        0.188576D+01      0.479314D+01      0.159882D+02
   x          0.000000D+00      0.000000D+00      0.000000D+00
   y          0.000000D+00      0.000000D+00      0.000000D+00
   z         -0.188576D+01     -0.479314D+01     -0.159882D+02

 Dipole polarizability, Alpha (input orientation).
 (esu units = cm**3 , SI units = C**2 m**2 J**-1)
 Alpha(0;0):
               (au)            (10**-24 esu)      (10**-40 SI)
   iso        0.833813D+02      0.123558D+02      0.137477D+02
   aniso      0.605752D+02      0.897633D+01      0.998751D+01
   xx         0.442236D+02      0.655327D+01      0.729149D+01
   yx         0.000000D+00      0.000000D+00      0.000000D+00
   yy         0.944088D+02      0.139899D+02      0.155659D+02
   zx         0.000000D+00      0.000000D+00      0.000000D+00
   zy         0.000000D+00      0.000000D+00      0.000000D+00
   zz         0.111512D+03      0.165243D+02      0.183858D+02

 ----------------------------------------------------------------------

 Dipole orientation:
     6         -0.00000000          0.00000000         -0.45259171
     6          0.00000000         -2.29590015          0.81383247
     6          0.00000000         -2.28046636          3.43585219
     6          0.00000000         -0.00000000          4.74402478
     6         -0.00000000          2.28046636          3.43585219
     6         -0.00000000          2.29590015          0.81383247
     7         -0.00000000          0.00000000         -3.24568030
     8         -0.00000000          2.04460542         -4.31904577
     8          0.00000000         -2.04460542         -4.31904577
     1          0.00000000         -4.03346850         -0.25131969
     1          0.00000000         -4.04973123          4.45636178
     1          0.00000000         -0.00000000          6.78746203
     1         -0.00000000          4.04973123          4.45636178
     1         -0.00000000          4.03346850         -0.25131969

 Electric dipole moment (dipole orientation):
 (Debye = 10**-18 statcoulomb cm , SI units = C m)
                  (au)            (Debye)         (10**-30 SI)
   Tot        0.188576D+01      0.479314D+01      0.159882D+02
   x          0.000000D+00      0.000000D+00      0.000000D+00
   y          0.000000D+00      0.000000D+00      0.000000D+00
   z          0.188576D+01      0.479314D+01      0.159882D+02

 Dipole polarizability, Alpha (dipole orientation).
 (esu units = cm**3 , SI units = C**2 m**2 J**-1)
 Alpha(0;0):
               (au)            (10**-24 esu)      (10**-40 SI)
   iso        0.833813D+02      0.123558D+02      0.137477D+02
   aniso      0.605752D+02      0.897633D+01      0.998751D+01
   xx         0.442236D+02      0.655327D+01      0.729149D+01
   yx         0.000000D+00      0.000000D+00      0.000000D+00
   yy         0.944088D+02      0.139899D+02      0.155659D+02
   zx         0.000000D+00      0.000000D+00      0.000000D+00
   zy         0.000000D+00      0.000000D+00      0.000000D+00
   zz         0.111512D+03      0.165243D+02      0.183858D+02

 ----------------------------------------------------------------------
 1\1\GINC-GAMBA\Freq\RB3LYP\Gen\C6H5N1O2\IRIKURA\01-Mar-2022\0\\#N Geom
 =AllCheck Guess=TCheck SCRF=Check GenChk RB3LYP/ChkBas Freq\\nitrobenz
 ene, B3LYP/pcseg-2\\0,1\C,0.,0.,0.2395012171\C,0.,1.2149380399,-0.4306
 615946\C,0.,1.2067708271,-1.8181746805\C,0.,0.,-2.5104297991\C,0.,-1.2
 067708271,-1.8181746805\C,0.,-1.2149380399,-0.4306615946\N,0.,0.,1.717
 5400509\O,0.,-1.081958592,2.2855405952\O,0.,1.081958592,2.2855405952\H
 ,0.,2.1344196123,0.1329926551\H,0.,2.143025477,-2.3582050965\H,0.,0.,-
 3.5917702262\H,0.,-2.143025477,-2.3582050965\H,0.,-2.1344196123,0.1329
 926551\\Version=ES64L-G16RevB.01\State=1-A1\HF=-436.9253217\RMSD=1.014
 e-09\RMSF=1.539e-04\ZeroPoint=0.1029979\Thermal=0.1098081\Dipole=0.,0.
 ,-1.8857646\DipoleDeriv=0.039842,0.,0.,0.,0.0787694,0.,0.,0.,-0.423198
 7,-0.0622944,0.,0.,0.,-0.0629315,-0.1409637,0.,0.1193606,0.0857778,-0.
 1321533,0.,0.,0.,0.0468258,-0.1419284,0.,-0.1790205,-0.1320976,-0.0961
 812,0.,0.,0.,0.0636094,0.,0.,0.,0.1372822,-0.1321533,0.,0.,0.,0.046825
 8,0.1419284,0.,0.1790205,-0.1320976,-0.0622944,0.,0.,0.,-0.0629315,0.1
 409637,0.,-0.1193606,0.0857778,0.2428243,0.,0.,0.,1.562986,0.,0.,0.,1.
 8625948,-0.2438561,0.,0.,0.,-0.9066549,0.2480504,0.,0.36031,-0.8427157
 ,-0.2438561,0.,0.,0.,-0.9066549,-0.2480504,0.,-0.36031,-0.8427157,0.14
 17339,0.,0.,0.,0.0604979,-0.0236299,0.,-0.0367841,0.1095957,0.1367244,
 0.,0.,0.,-0.0299021,0.0628384,0.,0.054447,0.0262997,0.133206,0.,0.,0.,
 0.0789649,0.,0.,0.,-0.0703979,0.1367244,0.,0.,0.,-0.0299021,-0.0628384
 ,0.,-0.054447,0.0262997,0.1417339,0.,0.,0.,0.0604979,0.0236299,0.,0.03
 67841,0.1095957\Polar=44.2236496,0.,94.4087925,0.,0.,111.5115884\Quadr
 upole=-0.493283,3.1035573,-2.6102744,0.,0.,0.\PG=C02V [C2(H1C1C1N1),SG
 V(C4H4O2)]\NImag=0\\0.13993768,0.,0.75087020,0.,0.,0.53001678,-0.06334
 728,0.,0.,0.13953488,0.,-0.29020380,0.10339575,0.,0.72467151,0.,0.0454
 4152,-0.15027537,0.,0.04697913,0.69489373,0.00549577,0.,0.,-0.06449321
 ,0.,0.,0.13702320,0.,0.03259453,0.02527450,0.,-0.13073769,0.03268475,0
 .,0.72018452,0.,0.07571872,-0.03423283,0.,-0.03342964,-0.33651758,0.,-
 0.04020783,0.68081000,-0.00638358,0.,0.,0.00684124,0.,0.,-0.06514686,0
 .,0.,0.14183186,0.,-0.06619635,0.,0.,0.03495230,-0.07604706,0.,-0.2802
 5285,-0.05142159,0.,0.65590208,0.,0.,-0.00117176,0.,-0.03117683,-0.028
 28295,0.,-0.11650365,-0.17987186,0.,0.,0.74257730,0.00549577,0.,0.,-0.
 00461461,0.,0.,0.00777660,0.,0.,-0.06514686,0.,0.,0.13702320,0.,0.0325
 9453,-0.02527450,0.,-0.01705661,0.02758108,0.,-0.05846829,-0.02210561,
 0.,-0.28025285,0.11650365,0.,0.72018452,0.,-0.07571873,-0.03423283,0.,
 0.03078744,-0.04920761,0.,0.02210561,0.06591210,0.,0.05142159,-0.17987
 186,0.,0.04020783,0.68081000,-0.06334728,0.,0.,0.00810539,0.,0.,-0.004
 61461,0.,0.,0.00684124,0.,0.,-0.06449321,0.,0.,0.13953488,0.,-0.290203
 80,-0.10339575,0.,-0.05663959,0.02210199,0.,-0.01705661,-0.03078744,0.
 ,0.03495230,0.03117683,0.,-0.13073769,0.03342964,0.,0.72467151,0.,-0.0
 4544152,-0.15027537,0.,-0.02210199,0.05979297,0.,-0.02758108,-0.049207
 61,0.,0.07604706,-0.02828295,0.,-0.03268475,-0.33651758,0.,-0.04697913
 ,0.69489373,-0.08188525,0.,0.,-0.00222215,0.,0.,0.00932519,0.,0.,-0.00
 175237,0.,0.,0.00932519,0.,0.,-0.00222215,0.,0.,0.23352354,0.,-0.10662
 683,0.,0.,0.01375491,0.02570406,0.,-0.00692629,0.00558072,0.,-0.004983
 78,0.,0.,-0.00692629,-0.00558072,0.,0.01375491,-0.02570406,0.,0.925152
 02,0.,0.,-0.10422876,0.,0.01935265,-0.03505242,0.,0.00504676,0.0079575
 3,0.,0.,-0.00033726,0.,-0.00504676,0.00795753,0.,-0.01935265,-0.035052
 42,0.,0.,0.62993701,0.01960547,0.,0.,0.00302449,0.,0.,-0.00140265,0.,0
 .,0.00020838,0.,0.,-0.00090716,0.,0.,0.00159320,0.,0.,-0.07761014,0.,0
 .,0.02827922,0.,-0.01262264,0.03393490,0.,0.00281140,0.00080772,0.,0.0
 0095366,0.00120663,0.,0.00059865,-0.00084235,0.,0.00110399,0.00259247,
 0.,-0.00695417,-0.00824443,0.,-0.41017187,0.16813735,0.,0.54585326,0.,
 0.04953019,-0.03643766,0.,-0.00720387,-0.00488493,0.,0.00140522,-0.003
 12195,0.,0.00157796,-0.00033468,0.,0.00130639,0.00013707,0.,0.00198506
 ,-0.00331562,0.,0.17162601,-0.23681545,0.,-0.20859146,0.24055593,0.019
 60547,0.,0.,0.00159320,0.,0.,-0.00090716,0.,0.,0.00020838,0.,0.,-0.001
 40265,0.,0.,0.00302449,0.,0.,-0.07761014,0.,0.,0.02708722,0.,0.,0.0282
 7922,0.,-0.01262264,-0.03393490,0.,-0.00695417,0.00824443,0.,0.0011039
 9,-0.00259247,0.,0.00059865,0.00084235,0.,0.00095366,-0.00120663,0.,0.
 00281140,-0.00080772,0.,-0.41017187,-0.16813735,0.,-0.12660527,-0.0124
 4242,0.,0.54585326,0.,-0.04953019,-0.03643766,0.,-0.00198506,-0.003315
 62,0.,-0.00130639,0.00013707,0.,-0.00157796,-0.00033468,0.,-0.00140522
 ,-0.00312195,0.,0.00720387,-0.00488493,0.,-0.17162601,-0.23681545,0.,0
 .01244242,0.04911768,0.,0.20859146,0.24055593,0.00497516,0.,0.,-0.0395
 7364,0.,0.,0.00485523,0.,0.,0.00766945,0.,0.,-0.00123262,0.,0.,0.00539
 098,0.,0.,-0.00442382,0.,0.,0.00045077,0.,0.,-0.00007025,0.,0.,0.02670
 098,0.,-0.01955094,-0.01504341,0.,-0.27172840,-0.12573034,0.,0.0064721
 0,0.00229841,0.,0.00127588,0.00113540,0.,0.00034339,0.00063264,0.,-0.0
 0291175,0.00400255,0.,-0.00340050,-0.00316290,0.,0.00127003,0.00009967
 ,0.,0.00336958,-0.00083083,0.,0.28481337,0.,0.01197257,0.01298356,0.,-
 0.12776672,-0.13257323,0.,-0.02654860,-0.00980104,0.,0.00101763,-0.005
 07700,0.,0.00076834,-0.00087538,0.,0.00351363,-0.00162924,0.,0.0005055
 4,0.00089371,0.,-0.00146447,0.00047847,0.,0.00047550,-0.00412853,0.,0.
 13760337,0.13821752,0.00751953,0.,0.,0.00359123,0.,0.,-0.03815696,0.,0
 .,0.00359560,0.,0.,0.00707879,0.,0.,-0.00108105,0.,0.,0.00073777,0.,0.
 ,-0.00041658,0.,0.,0.00002486,0.,0.,-0.00443904,0.,0.,0.02627563,0.,0.
 00161432,-0.00055454,0.,0.00436795,-0.00196753,0.,-0.26975392,0.121099
 36,0.,-0.01879397,0.01566632,0.,-0.00309080,-0.00386025,0.,0.00016320,
 -0.00089695,0.,0.00023072,-0.00057704,0.,-0.00000397,-0.00000024,0.,0.
 00003338,0.00016534,0.,0.00066310,0.00032472,0.,0.28447281,0.,-0.00159
 743,-0.00484411,0.,0.02881466,-0.01244019,0.,0.12089314,-0.12912770,0.
 ,-0.01538690,0.01213136,0.,-0.00319909,-0.00092613,0.,-0.00077886,-0.0
 0083002,0.,0.00178659,0.00037063,0.,0.00026804,-0.00095118,0.,-0.00027
 588,-0.00016862,0.,-0.00035572,0.00127018,0.,-0.13003914,0.13427774,-0
 .00016612,0.,0.,0.00725052,0.,0.,0.00439930,0.,0.,-0.04003152,0.,0.,0.
 00439930,0.,0.,0.00725052,0.,0.,-0.00149964,0.,0.,0.00013317,0.,0.,0.0
 0013317,0.,0.,-0.00016181,0.,0.,-0.00399642,0.,0.,0.02644776,0.,-0.001
 70996,0.,0.,-0.00448928,-0.00269415,0.,0.00463426,-0.02858687,0.,-0.06
 028195,0.,0.,0.00463426,0.02858687,0.,-0.00448928,0.00269415,0.,-0.000
 51536,0.,0.,0.00036396,0.00004198,0.,0.00036396,-0.00004198,0.,0.00019
 334,-0.00119552,0.,0.00102354,0.00058641,0.,0.05905564,0.,0.,0.0009965
 7,0.,-0.00293074,0.00032247,0.,0.00230682,-0.01113463,0.,0.,-0.3381980
 3,0.,-0.00230682,-0.01113463,0.,0.00293074,0.00032247,0.,0.,-0.0000789
 8,0.,-0.00004719,-0.00013052,0.,0.00004720,-0.00013052,0.,0.00027414,-
 0.00048620,0.,-0.00020486,0.00080240,0.,0.,0.35853341,0.00751953,0.,0.
 ,-0.00108105,0.,0.,0.00707879,0.,0.,0.00359560,0.,0.,-0.03815696,0.,0.
 ,0.00359123,0.,0.,0.00073777,0.,0.,0.00002486,0.,0.,-0.00041658,0.,0.,
 -0.00083282,0.,0.,0.00009946,0.,0.,-0.00399642,0.,0.,0.02627563,0.,0.0
 0161432,0.00055454,0.,0.00016320,0.00089695,0.,-0.00309080,0.00386025,
 0.,-0.01879397,-0.01566632,0.,-0.26975392,-0.12109936,0.,0.00436795,0.
 00196753,0.,0.00023072,0.00057704,0.,0.00003338,-0.00016534,0.,-0.0000
 0397,0.00000024,0.,-0.00000215,-0.00005879,0.,-0.00092422,-0.00078603,
 0.,0.00102354,0.00020486,0.,0.28447281,0.,0.00159743,-0.00484411,0.,0.
 00077886,-0.00083002,0.,0.00319909,-0.00092613,0.,0.01538690,0.0121313
 6,0.,-0.12089314,-0.12912770,0.,-0.02881466,-0.01244019,0.,-0.00178659
 ,0.00037063,0.,0.00027588,-0.00016862,0.,-0.00026804,-0.00095118,0.,-0
 .00007019,0.00003049,0.,0.00078603,0.00040516,0.,-0.00058641,0.0008024
 0,0.,0.13003914,0.13427774,0.00497516,0.,0.,0.00539098,0.,0.,-0.001232
 62,0.,0.,0.00766945,0.,0.,0.00485523,0.,0.,-0.03957364,0.,0.,-0.004423
 82,0.,0.,-0.00007025,0.,0.,0.00045077,0.,0.,0.00069143,0.,0.,-0.000832
 82,0.,0.,-0.00016181,0.,0.,-0.00443904,0.,0.,0.02670098,0.,-0.01955094
 ,0.01504341,0.,-0.00291175,-0.00400255,0.,0.00034339,-0.00063264,0.,0.
 00127588,-0.00113540,0.,0.00647210,-0.00229841,0.,-0.27172840,0.125730
 34,0.,-0.00340050,0.00316290,0.,0.00336958,0.00083083,0.,0.00127003,-0
 .00009967,0.,-0.00080705,0.00085280,0.,-0.00000215,0.00007019,0.,0.000
 19334,-0.00027414,0.,0.00066310,0.00035572,0.,0.28481337,0.,-0.0119725
 7,0.01298356,0.,-0.00351363,-0.00162924,0.,-0.00076834,-0.00087538,0.,
 -0.00101763,-0.00507700,0.,0.02654860,-0.00980104,0.,0.12776672,-0.132
 57323,0.,-0.00050554,0.00089371,0.,-0.00047550,-0.00412853,0.,0.001464
 47,0.00047847,0.,-0.00085280,0.00069668,0.,0.00005879,0.00003049,0.,0.
 00119552,-0.00048620,0.,-0.00032472,0.00127018,0.,-0.13760337,0.138217
 52\\0.,0.,-0.00069237,0.,-0.00006140,-0.00012620,0.,-0.00025276,0.0001
 1989,0.,0.,0.00027626,0.,0.00025276,0.00011989,0.,0.00006140,-0.000126
 20,0.,0.,-0.00027471,0.,0.00002908,0.00025154,0.,-0.00002908,0.0002515
 4,0.,-0.00009411,0.00000763,0.,-0.00006827,0.00004821,0.,0.,0.00008867
 ,0.,0.00006827,0.00004821,0.,0.00009411,0.00000763\\\@


 A MATHEMATICIAN IS A MACHINE FOR TURNING COFFEE INTO THEOREMS.
     -- QUOTED BY PAUL ERDOS
 Job cpu time:       0 days  0 hours 55 minutes 28.1 seconds.
 Elapsed time:       0 days  0 hours  4 minutes 37.5 seconds.
 File lengths (MBytes):  RWF=    108 Int=      0 D2E=      0 Chk=     10 Scr=      1
 Normal termination of Gaussian 16 at Tue Mar  1 14:33:10 2022.
