 Entering Gaussian System, Link 0=g16
 AtFile(1): pcseg2.gbs
            -H     0
            S   4   1.00
                  0.754732D+02           0.427821D-02
                  0.113575D+02           0.328672D-01
                  0.260081D+01           0.159578D+00
                  0.735503D+00           0.500000D+00
            S   1   1.00
                  0.231761D+00           1.0000000
            S   1   1.00
                  0.741675D-01           1.0000000
            P   1   1.00
                  0.160000D+01           1.0000000
            P   1   1.00
                  0.450000D+00           1.0000000
            D   1   1.00
                  0.125000D+01           1.0000000
            ****
            -C     0
            S   7   1.00
                  0.731999D+04           0.695369D-03
                  0.109818D+04           0.537138D-02
                  0.250014D+03           0.274734D-01
                  0.707586D+02           0.105078D+00
                  0.228595D+02           0.291262D+00
                  0.803936D+01           0.500000D+00
                  0.289309D+01           0.362224D+00
            S   2   1.00
                  0.521640D+01          -0.957844D-01
                  0.556124D+00           0.500000D+00
            S   1   1.00
                  0.228813D+00           1.0000000
            S   1   1.00
                  0.936338D-01           1.0000000
            P   4   1.00
                  0.339855D+02           0.818395D-02
                  0.772957D+01           0.586921D-01
                  0.224954D+01           0.222514D+00
                  0.767681D+00           0.500000D+00
            P   1   1.00
                  0.263283D+00           1.0000000
            P   1   1.00
                  0.848744D-01           1.0000000
            D   1   1.00
                  0.140000D+01           1.0000000
            D   1   1.00
                  0.450000D+00           1.0000000
            F   1   1.00
                  0.950000D+00           1.0000000
            ****
            -O     0
            S   7   1.00
                  0.135887D+05           0.665492D-03
                  0.203847D+04           0.514222D-02
                  0.464041D+03           0.263472D-01
                  0.131339D+03           0.101500D+00
                  0.425340D+02           0.285877D+00
                  0.150429D+02           0.500000D+00
                  0.546616D+01           0.368211D+00
            S   2   1.00
                  0.100915D+02          -0.100084D+00
                  0.110429D+01           0.500000D+00
            S   1   1.00
                  0.448082D+00           1.0000000
            S   1   1.00
                  0.175325D+00           1.0000000
            P   4   1.00
                  0.608220D+02           0.908253D-02
                  0.140332D+02           0.645878D-01
                  0.418244D+01           0.241502D+00
                  0.142490D+01           0.500000D+00
            P   1   1.00
                  0.478741D+00           1.0000000
            P   1   1.00
                  0.146257D+00           1.0000000
            D   1   1.00
                  0.220000D+01           1.0000000
            D   1   1.00
                  0.650000D+00           1.0000000
            F   1   1.00
                  0.110000D+01           1.0000000
            ****
            -N     0
            S   7   1.00
                  0.101643D+05           0.682757D-03
                  0.152481D+04           0.527488D-02
                  0.347119D+03           0.270037D-01
                  0.982389D+02           0.103673D+00
                  0.317799D+02           0.289575D+00
                  0.112240D+02           0.500000D+00
                  0.406611D+01           0.364621D+00
            S   2   1.00
                  0.747898D+01          -0.975681D-01
                  0.805040D+00           0.500000D+00
            S   1   1.00
                  0.324626D+00           1.0000000
            S   1   1.00
                  0.128132D+00           1.0000000
            P   4   1.00
                  0.482704D+02           0.829547D-02
                  0.110815D+02           0.596223D-01
                  0.326643D+01           0.227889D+00
                  0.111680D+01           0.500000D+00
            P   1   1.00
                  0.382049D+00           1.0000000
            P   1   1.00
                  0.121222D+00           1.0000000
            D   1   1.00
                  0.180000D+01           1.0000000
            D   1   1.00
                  0.550000D+00           1.0000000
            F   1   1.00
                  0.102000D+01           1.0000000
            ****
            -F     0
            S   7   1.00
                  0.174507D+05           0.655972D-03
                  0.261768D+04           0.506944D-02
                  0.595857D+03           0.259899D-01
                  0.168651D+03           0.100353D+00
                  0.546654D+02           0.284095D+00
                  0.193717D+02           0.500000D+00
                  0.706202D+01           0.370721D+00
            S   2   1.00
                  0.131197D+02          -0.101997D+00
                  0.145046D+01           0.500000D+00
            S   1   1.00
                  0.588255D+00           1.0000000
            S   1   1.00
                  0.227960D+00           1.0000000
            P   4   1.00
                  0.779407D+02           0.931135D-02
                  0.180425D+02           0.663964D-01
                  0.542342D+01           0.246386D+00
                  0.184876D+01           0.500000D+00
            P   1   1.00
                  0.617455D+00           1.0000000
            P   1   1.00
                  0.185496D+00           1.0000000
            D   1   1.00
                  0.280000D+01           1.0000000
            D   1   1.00
                  0.800000D+00           1.0000000
            F   1   1.00
                  0.120000D+01           1.0000000
            ****
            -Cl     0
            S   8   1.00
                  0.154272D+06           0.222473D-03
                  0.231232D+05           0.172590D-02
                  0.526257D+04           0.899286D-02
                  0.148995D+04           0.367724D-01
                  0.485417D+03           0.121446D+00
                  0.174634D+03           0.304148D+00
                  0.672393D+02           0.500000D+00
                  0.265780D+02           0.360252D+00
            S   3   1.00
                  0.131826D+03          -0.531330D-01
                  0.400703D+02          -0.233346D+00
                  0.789448D+01           0.500000D+00
            S   2   1.00
                  0.427711D+01           0.500000D+00
                  0.196233D+01           0.370517D+00
            S   1   1.00
                  0.520793D+00           1.0000000
            S   1   1.00
                  0.181633D+00           1.0000000
            P   7   1.00
                  0.124440D+04           0.988206D-03
                  0.295109D+03           0.829674D-02
                  0.947224D+02           0.430906D-01
                  0.352588D+02           0.148443D+00
                  0.144211D+02           0.344744D+00
                  0.610371D+01           0.500000D+00
                  0.258886D+01           0.348278D+00
            P   2   1.00
                  0.109447D+02          -0.196768D-01
                  0.104413D+01           0.500000D+00
            P   1   1.00
                  0.376184D+00           1.0000000
            P   1   1.00
                  0.120613D+00           1.0000000
            D   1   1.00
                  0.231000D+01           1.0000000
            D   1   1.00
                  0.520000D+00           1.0000000
            F   1   1.00
                  0.720000D+00           1.0000000
            ****
            -S     0
            S   8   1.00
                  0.134700D+06           0.226231D-03
                  0.201904D+05           0.175488D-02
                  0.459528D+04           0.914190D-02
                  0.130109D+04           0.373551D-01
                  0.423902D+03           0.123121D+00
                  0.152485D+03           0.306801D+00
                  0.586925D+02           0.500000D+00
                  0.231461D+02           0.354358D+00
            S   3   1.00
                  0.116327D+03          -0.491772D-01
                  0.352841D+02          -0.215962D+00
                  0.677831D+01           0.500000D+00
            S   2   1.00
                  0.360404D+01           0.500000D+00
                  0.164871D+01           0.366278D+00
            S   1   1.00
                  0.421821D+00           1.0000000
            S   1   1.00
                  0.147554D+00           1.0000000
            P   7   1.00
                  0.104863D+04           0.105273D-02
                  0.248717D+03           0.879338D-02
                  0.797887D+02           0.453358D-01
                  0.296023D+02           0.154476D+00
                  0.120627D+02           0.352366D+00
                  0.507628D+01           0.500000D+00
                  0.213375D+01           0.346429D+00
            P   2   1.00
                  0.928958D+01          -0.185932D-01
                  0.837819D+00           0.500000D+00
            P   1   1.00
                  0.301495D+00           1.0000000
            P   1   1.00
                  0.974740D-01           1.0000000
            D   1   1.00
                  0.210000D+01           1.0000000
            D   1   1.00
                  0.480000D+00           1.0000000
            F   1   1.00
                  0.660000D+00           1.0000000
            ****
            -Br     0
            S    10   1.00
                  0.233625D+07           0.532336D-04
                  0.349961D+06           0.413715D-03
                  0.796444D+05           0.217123D-02
                  0.225555D+05           0.910109D-02
                  0.735546D+04           0.323789D-01
                  0.265352D+04           0.988755D-01
                  0.103517D+04           0.248138D+00
                  0.422205D+03           0.474328D+00
                  0.180035D+03           0.500000D+00
                  0.793308D+02           0.187769D+00
            S    4   1.00
                  0.620834D+03          -0.226511D-01
                  0.190829D+03          -0.109497D+00
                  0.312505D+02           0.500000D+00
                  0.135270D+02           0.492812D+00
            S    2   1.00
                  0.216097D+02          -0.165418D+00
                  0.372566D+01           0.500000D+00
            S    1   1.00
                  0.169770D+01           1.0000000
            S    1   1.00
                  0.489332D+00           1.0000000
            S    1   1.00
                  0.175712D+00           1.0000000
            P    8   1.00
                  0.960829D+04           0.478974D-03
                  0.227618D+04           0.417853D-02
                  0.736723D+03           0.229315D-01
                  0.281579D+03           0.892653D-01
                  0.118395D+03           0.255288D+00
                  0.527481D+02           0.479074D+00
                  0.245098D+02           0.500000D+00
                  0.112009D+02           0.200944D+00
            P    4   1.00
                  0.587849D+02          -0.189674D-01
                  0.918962D+01           0.264104D+00
                  0.413895D+01           0.500000D+00
                  0.184225D+01           0.319316D+00
            P    1   1.00
                  0.713862D+00           1.0000000
            P    1   1.00
                  0.274232D+00           1.0000000
            P    1   1.00
                  0.944411D-01           1.0000000
            D    7   1.00
                  0.398470D+03           0.204066D-02
                  0.118967D+03           0.175171D-01
                  0.450197D+02           0.829708D-01
                  0.190320D+02           0.236284D+00
                  0.855686D+01           0.428468D+00
                  0.382950D+01           0.500000D+00
                  0.166291D+01           0.349360D+00
            D    1   1.00
                  0.672953D+00           1.0000000
            D    1   1.00
                  0.252000D+00           1.0000000
            F    1   1.00
                  0.530000D+00           1.0000000
            ****
            -Si     0
            S    8   1.00
                  0.996133D+05           0.235546D-03
                  0.149311D+05           0.182707D-02
                  0.339820D+04           0.951425D-02
                  0.962140D+03           0.388172D-01
                  0.313430D+03           0.127328D+00
                  0.112683D+03           0.313522D+00
                  0.433372D+02           0.500000D+00
                  0.170029D+02           0.340347D+00
            S    3   1.00
                  0.884208D+02          -0.404451D-01
                  0.266756D+02          -0.178059D+00
                  0.479640D+01           0.500000D+00
            S    2   1.00
                  0.239385D+01           0.500000D+00
                  0.108333D+01           0.338016D+00
            S    1   1.00
                  0.252420D+00           1.0000000
            S    1   1.00
                  0.891210D-01           1.0000000
            P    7   1.00
                  0.709901D+03           0.123028D-02
                  0.168426D+03           0.101366D-01
                  0.539946D+02           0.511840D-01
                  0.198646D+02           0.169967D+00
                  0.801369D+01           0.370717D+00
                  0.331870D+01           0.500000D+00
                  0.136112D+01           0.344128D+00
            P    2   1.00
                  0.622158D+01          -0.166609D-01
                  0.503049D+00           0.500000D+00
            P    1   1.00
                  0.179848D+00           1.0000000
            P    1   1.00
                  0.591912D-01           1.0000000
            D    1   1.00
                  0.168000D+01           1.0000000
            D    1   1.00
                  0.380000D+00           1.0000000
            F    1   1.00
                  0.540000D+00           1.0000000
            ****
            -P     0
            S    8   1.00
                  0.116416D+06           0.230715D-03
                  0.174500D+05           0.178960D-02
                  0.397149D+04           0.932116D-02
                  0.112447D+04           0.380591D-01
                  0.366347D+03           0.125148D+00
                  0.131757D+03           0.310022D+00
                  0.506988D+02           0.500000D+00
                  0.199436D+02           0.347528D+00
            S    3   1.00
                  0.101878D+03          -0.446755D-01
                  0.308249D+02          -0.196376D+00
                  0.573688D+01           0.500000D+00
            S    2   1.00
                  0.296868D+01           0.500000D+00
                  0.135315D+01           0.355098D+00
            S    1   1.00
                  0.332196D+00           1.0000000
            S    1   1.00
                  0.116229D+00           1.0000000
            P    7   1.00
                  0.873928D+03           0.112375D-02
                  0.207298D+03           0.933330D-02
                  0.664628D+02           0.477213D-01
                  0.245665D+02           0.160733D+00
                  0.996820D+01           0.359760D+00
                  0.416536D+01           0.500000D+00
                  0.173022D+01           0.346593D+00
            P    2   1.00
                  0.772530D+01          -0.175718D-01
                  0.657252D+00           0.500000D+00
            P    1   1.00
                  0.239903D+00           1.0000000
            P    1   1.00
                  0.800988D-01           1.0000000
            D    1   1.00
                  0.189000D+01           1.0000000
            D    1   1.00
                  0.430000D+00           1.0000000
            F    1   1.00
                  0.600000D+00           1.0000000
            ****
            
 Initial command:
 /usr/local/apps/g16_b01_avx/g16/l1.exe "/wrk/irikura/Gau-16334.inp" -scrdir="/wrk/irikura/"
 Entering Link 1 = /usr/local/apps/g16_b01_avx/g16/l1.exe PID=     16336.
  
 Copyright (c) 1988-2017, Gaussian, Inc.  All Rights Reserved.
  
 This is part of the Gaussian(R) 16 program.  It is based on
 the Gaussian(R) 09 system (copyright 2009, Gaussian, Inc.),
 the Gaussian(R) 03 system (copyright 2003, Gaussian, Inc.),
 the Gaussian(R) 98 system (copyright 1998, Gaussian, Inc.),
 the Gaussian(R) 94 system (copyright 1995, Gaussian, Inc.),
 the Gaussian 92(TM) system (copyright 1992, Gaussian, Inc.),
 the Gaussian 90(TM) system (copyright 1990, Gaussian, Inc.),
 the Gaussian 88(TM) system (copyright 1988, Gaussian, Inc.),
 the Gaussian 86(TM) system (copyright 1986, Carnegie Mellon
 University), and the Gaussian 82(TM) system (copyright 1983,
 Carnegie Mellon University). Gaussian is a federally registered
 trademark of Gaussian, Inc.
  
 This software contains proprietary and confidential information,
 including trade secrets, belonging to Gaussian, Inc.
  
 This software is provided under written license and may be
 used, copied, transmitted, or stored only in accord with that
 written license.
  
 The following legend is applicable only to US Government
 contracts under FAR:
  
                    RESTRICTED RIGHTS LEGEND
  
 Use, reproduction and disclosure by the US Government is
 subject to restrictions as set forth in subparagraphs (a)
 and (c) of the Commercial Computer Software - Restricted
 Rights clause in FAR 52.227-19.
  
 Gaussian, Inc.
 340 Quinnipiac St., Bldg. 40, Wallingford CT 06492
  
  
 ---------------------------------------------------------------
 Warning -- This program may not be used in any manner that
 competes with the business of Gaussian, Inc. or will provide
 assistance to any competitor of Gaussian, Inc.  The licensee
 of this program is prohibited from giving any competitor of
 Gaussian, Inc. access to this program.  By using this program,
 the user acknowledges that Gaussian, Inc. is engaged in the
 business of creating and licensing software in the field of
 computational chemistry and represents and warrants to the
 licensee that it is not a competitor of Gaussian, Inc. and that
 it will not use this program in any manner prohibited above.
 ---------------------------------------------------------------
  

 Cite this work as:
 Gaussian 16, Revision B.01,
 M. J. Frisch, G. W. Trucks, H. B. Schlegel, G. E. Scuseria, 
 M. A. Robb, J. R. Cheeseman, G. Scalmani, V. Barone, 
 G. A. Petersson, H. Nakatsuji, X. Li, M. Caricato, A. V. Marenich, 
 J. Bloino, B. G. Janesko, R. Gomperts, B. Mennucci, H. P. Hratchian, 
 J. V. Ortiz, A. F. Izmaylov, J. L. Sonnenberg, D. Williams-Young, 
 F. Ding, F. Lipparini, F. Egidi, J. Goings, B. Peng, A. Petrone, 
 T. Henderson, D. Ranasinghe, V. G. Zakrzewski, J. Gao, N. Rega, 
 G. Zheng, W. Liang, M. Hada, M. Ehara, K. Toyota, R. Fukuda, 
 J. Hasegawa, M. Ishida, T. Nakajima, Y. Honda, O. Kitao, H. Nakai, 
 T. Vreven, K. Throssell, J. A. Montgomery, Jr., J. E. Peralta, 
 F. Ogliaro, M. J. Bearpark, J. J. Heyd, E. N. Brothers, K. N. Kudin, 
 V. N. Staroverov, T. A. Keith, R. Kobayashi, J. Normand, 
 K. Raghavachari, A. P. Rendell, J. C. Burant, S. S. Iyengar, 
 J. Tomasi, M. Cossi, J. M. Millam, M. Klene, C. Adamo, R. Cammi, 
 J. W. Ochterski, R. L. Martin, K. Morokuma, O. Farkas, 
 J. B. Foresman, and D. J. Fox, Gaussian, Inc., Wallingford CT, 2016.
 
 ******************************************
 Gaussian 16:  ES64L-G16RevB.01 20-Dec-2017
                16-Jun-2022 
 ******************************************
 %mem=1000mw
 %nprocs=12
 Will use up to   12 processors via shared memory.
 --------------------
 # b3lyp/gen opt freq
 --------------------
 1/18=20,19=15,26=3,38=1/1,3;
 2/9=110,12=2,17=6,18=5,40=1/2;
 3/5=7,11=2,25=1,30=1,71=1,74=-5/1,2,3;
 4//1;
 5/5=2,38=5/2;
 6/7=2,8=2,9=2,10=2,28=1/1;
 7//1,2,3,16;
 1/18=20,19=15,26=3/3(2);
 2/9=110/2;
 99//99;
 2/9=110/2;
 3/5=7,6=1,11=2,25=1,30=1,71=1,74=-5,82=7/1,2,3;
 4/5=5,16=3,69=1/1;
 5/5=2,38=5/2;
 7//1,2,3,16;
 1/18=20,19=15,26=3/3(-5);
 2/9=110/2;
 6/7=2,8=2,9=2,10=2,19=2,28=1/1;
 99/9=1/99;
 ----------------------------
 phenylperoxyl, B3LYP/pcseg-2
 ----------------------------
 Symbolic Z-matrix:
 Charge =  0 Multiplicity = 2
 C                     0.45208  -0.22509   0. 
 C                     0.02496   1.09715   0. 
 C                    -1.34422   1.34268   0. 
 C                    -2.25744   0.28779   0. 
 C                    -1.8009   -1.02961   0. 
 C                    -0.43607  -1.29591   0. 
 O                     1.80088  -0.58773   0. 
 O                     2.65137   0.41764   0. 
 H                     0.75721   1.89224   0. 
 H                    -1.69984   2.36744   0. 
 H                    -3.32219   0.49291   0. 
 H                    -2.50707  -1.85261   0. 
 H                    -0.04899  -2.30814   0. 
 

 GradGradGradGradGradGradGradGradGradGradGradGradGradGradGradGradGradGrad
 Berny optimization.
 Initialization pass.
                           ----------------------------
                           !    Initial Parameters    !
                           ! (Angstroms and Degrees)  !
 --------------------------                            --------------------------
 ! Name  Definition              Value          Derivative Info.                !
 --------------------------------------------------------------------------------
 ! R1    R(1,2)                  1.3895         estimate D2E/DX2                !
 ! R2    R(1,6)                  1.3912         estimate D2E/DX2                !
 ! R3    R(1,7)                  1.3967         estimate D2E/DX2                !
 ! R4    R(2,3)                  1.391          estimate D2E/DX2                !
 ! R5    R(2,9)                  1.0809         estimate D2E/DX2                !
 ! R6    R(3,4)                  1.3953         estimate D2E/DX2                !
 ! R7    R(3,10)                 1.0847         estimate D2E/DX2                !
 ! R8    R(4,5)                  1.3943         estimate D2E/DX2                !
 ! R9    R(4,11)                 1.0843         estimate D2E/DX2                !
 ! R10   R(5,6)                  1.3906         estimate D2E/DX2                !
 ! R11   R(5,12)                 1.0844         estimate D2E/DX2                !
 ! R12   R(6,13)                 1.0837         estimate D2E/DX2                !
 ! R13   R(7,8)                  1.3168         estimate D2E/DX2                !
 ! A1    A(2,1,6)              122.4254         estimate D2E/DX2                !
 ! A2    A(2,1,7)              122.9509         estimate D2E/DX2                !
 ! A3    A(6,1,7)              114.6238         estimate D2E/DX2                !
 ! A4    A(1,2,3)              118.0685         estimate D2E/DX2                !
 ! A5    A(1,2,9)              119.4537         estimate D2E/DX2                !
 ! A6    A(3,2,9)              122.4778         estimate D2E/DX2                !
 ! A7    A(2,3,4)              120.7163         estimate D2E/DX2                !
 ! A8    A(2,3,10)             119.3049         estimate D2E/DX2                !
 ! A9    A(4,3,10)             119.9788         estimate D2E/DX2                !
 ! A10   A(3,4,5)              120.004          estimate D2E/DX2                !
 ! A11   A(3,4,11)             119.9788         estimate D2E/DX2                !
 ! A12   A(5,4,11)             120.0172         estimate D2E/DX2                !
 ! A13   A(4,5,6)              120.1536         estimate D2E/DX2                !
 ! A14   A(4,5,12)             120.2556         estimate D2E/DX2                !
 ! A15   A(6,5,12)             119.5907         estimate D2E/DX2                !
 ! A16   A(1,6,5)              118.6322         estimate D2E/DX2                !
 ! A17   A(1,6,13)             119.4004         estimate D2E/DX2                !
 ! A18   A(5,6,13)             121.9674         estimate D2E/DX2                !
 ! A19   A(1,7,8)              115.1804         estimate D2E/DX2                !
 ! D1    D(6,1,2,3)              0.0            estimate D2E/DX2                !
 ! D2    D(6,1,2,9)            180.0            estimate D2E/DX2                !
 ! D3    D(7,1,2,3)            180.0            estimate D2E/DX2                !
 ! D4    D(7,1,2,9)              0.0            estimate D2E/DX2                !
 ! D5    D(2,1,6,5)              0.0            estimate D2E/DX2                !
 ! D6    D(2,1,6,13)           180.0            estimate D2E/DX2                !
 ! D7    D(7,1,6,5)            180.0            estimate D2E/DX2                !
 ! D8    D(7,1,6,13)             0.0            estimate D2E/DX2                !
 ! D9    D(2,1,7,8)              0.0            estimate D2E/DX2                !
 ! D10   D(6,1,7,8)            180.0            estimate D2E/DX2                !
 ! D11   D(1,2,3,4)              0.0            estimate D2E/DX2                !
 ! D12   D(1,2,3,10)           180.0            estimate D2E/DX2                !
 ! D13   D(9,2,3,4)            180.0            estimate D2E/DX2                !
 ! D14   D(9,2,3,10)             0.0            estimate D2E/DX2                !
 ! D15   D(2,3,4,5)              0.0            estimate D2E/DX2                !
 ! D16   D(2,3,4,11)           180.0            estimate D2E/DX2                !
 ! D17   D(10,3,4,5)           180.0            estimate D2E/DX2                !
 ! D18   D(10,3,4,11)            0.0            estimate D2E/DX2                !
 ! D19   D(3,4,5,6)              0.0            estimate D2E/DX2                !
 ! D20   D(3,4,5,12)           180.0            estimate D2E/DX2                !
 ! D21   D(11,4,5,6)           180.0            estimate D2E/DX2                !
 ! D22   D(11,4,5,12)            0.0            estimate D2E/DX2                !
 ! D23   D(4,5,6,1)              0.0            estimate D2E/DX2                !
 ! D24   D(4,5,6,13)           180.0            estimate D2E/DX2                !
 ! D25   D(12,5,6,1)           180.0            estimate D2E/DX2                !
 ! D26   D(12,5,6,13)            0.0            estimate D2E/DX2                !
 --------------------------------------------------------------------------------
 Trust Radius=3.00D-01 FncErr=1.00D-07 GrdErr=1.00D-06 EigMax=2.50D+02 EigMin=1.00D-04
 Number of steps in this run=     68 maximum allowed number of steps=    100.
 GradGradGradGradGradGradGradGradGradGradGradGradGradGradGradGradGradGrad

                          Input orientation:                          
 ---------------------------------------------------------------------
 Center     Atomic      Atomic             Coordinates (Angstroms)
 Number     Number       Type             X           Y           Z
 ---------------------------------------------------------------------
      1          6           0        0.452081   -0.225088    0.000000
      2          6           0        0.024958    1.097153    0.000000
      3          6           0       -1.344216    1.342681    0.000000
      4          6           0       -2.257436    0.287792    0.000000
      5          6           0       -1.800903   -1.029614    0.000000
      6          6           0       -0.436069   -1.295910    0.000000
      7          8           0        1.800880   -0.587731    0.000000
      8          8           0        2.651365    0.417638    0.000000
      9          1           0        0.757213    1.892239    0.000000
     10          1           0       -1.699839    2.367440    0.000000
     11          1           0       -3.322194    0.492909    0.000000
     12          1           0       -2.507074   -1.852612    0.000000
     13          1           0       -0.048992   -2.308135    0.000000
 ---------------------------------------------------------------------
                    Distance matrix (angstroms):
                    1          2          3          4          5
     1  C    0.000000
     2  C    1.389516   0.000000
     3  C    2.384236   1.391015   0.000000
     4  C    2.757631   2.421650   1.395264   0.000000
     5  C    2.392321   2.803017   2.415853   1.394267   0.000000
     6  C    1.391212   2.437067   2.790501   2.413605   1.390570
     7  O    1.396699   2.448006   3.690274   4.151683   3.628788
     8  O    2.291276   2.712887   4.101265   4.910518   4.681584
     9  H    2.139201   1.080907   2.172100   3.415020   3.883450
    10  H    3.369267   2.142091   1.084711   2.153102   3.398557
    11  H    3.841962   3.401255   2.152791   1.084335   2.152302
    12  H    3.377193   3.887454   3.400314   2.154913   1.084437
    13  H    2.142466   3.406091   3.873766   3.408234   2.168826
                    6          7          8          9         10
     6  C    0.000000
     7  O    2.346371   0.000000
     8  O    3.531076   1.316849   0.000000
     9  H    3.404147   2.690630   2.400471   0.000000
    10  H    3.875209   4.581274   4.768092   2.502583   0.000000
    11  H    3.395525   5.235807   5.974033   4.312735   2.479093
    12  H    2.144523   4.489810   5.635914   4.967844   4.296565
    13  H    1.083710   2.526226   3.836895   4.277044   4.958457
                   11         12         13
    11  H    0.000000
    12  H    2.483121   0.000000
    13  H    4.308097   2.499934   0.000000
 Stoichiometry    C6H5O2(2)
 Framework group  CS[SG(C6H5O2)]
 Deg. of freedom    23
 Full point group                 CS      NOp   2
 Largest Abelian subgroup         CS      NOp   2
 Largest concise Abelian subgroup C1      NOp   1
                         Standard orientation:                         
 ---------------------------------------------------------------------
 Center     Atomic      Atomic             Coordinates (Angstroms)
 Number     Number       Type             X           Y           Z
 ---------------------------------------------------------------------
      1          6           0       -0.000000    0.560696    0.000000
      2          6           0       -1.030245   -0.371694    0.000000
      3          6           0       -0.691912   -1.720935    0.000000
      4          6           0        0.644928   -2.120460    0.000000
      5          6           0        1.658688   -1.163240    0.000000
      6          6           0        1.341074    0.190572    0.000000
      7          8           0       -0.223180    1.939448    0.000000
      8          8           0       -1.489107    2.302105    0.000000
      9          1           0       -2.055887   -0.030495    0.000000
     10          1           0       -1.480270   -2.465979    0.000000
     11          1           0        0.895109   -3.175539    0.000000
     12          1           0        2.699070   -1.469194    0.000000
     13          1           0        2.105088    0.959149    0.000000
 ---------------------------------------------------------------------
 Rotational constants (GHZ):           5.1994054           1.6210482           1.2357663
 General basis read from cards:  (5D, 7F)
 There are   247 symmetry adapted cartesian basis functions of A'  symmetry.
 There are   108 symmetry adapted cartesian basis functions of A"  symmetry.
 There are   210 symmetry adapted basis functions of A'  symmetry.
 There are   100 symmetry adapted basis functions of A"  symmetry.
   310 basis functions,   498 primitive gaussians,   355 cartesian basis functions
    29 alpha electrons       28 beta electrons
       nuclear repulsion energy       335.1456176958 Hartrees.
 NAtoms=   13 NActive=   13 NUniq=   13 SFac= 1.00D+00 NAtFMM=   60 NAOKFM=F Big=F
 Integral buffers will be    131072 words long.
 Raffenetti 2 integral format.
 Two-electron integral symmetry is turned on.
 One-electron integrals computed using PRISM.
 NBasis=   310 RedAO= T EigKep=  2.29D-05  NBF=   210   100
 NBsUse=   310 1.00D-06 EigRej= -1.00D+00 NBFU=   210   100
 ExpMin= 7.42D-02 ExpMax= 1.36D+04 ExpMxC= 4.64D+02 IAcc=3 IRadAn=         5 AccDes= 0.00D+00
 Harris functional with IExCor=  402 and IRadAn=       5 diagonalized for initial guess.
 HarFok:  IExCor=  402 AccDes= 0.00D+00 IRadAn=         5 IDoV= 1 UseB2=F ITyADJ=14
 ICtDFT=  3500011 ScaDFX=  1.000000  1.000000  1.000000  1.000000
 FoFCou: FMM=F IPFlag=           0 FMFlag=      100000 FMFlg1=           0
         NFxFlg=           0 DoJE=T BraDBF=F KetDBF=T FulRan=T
         wScrn=  0.000000 ICntrl=       500 IOpCl=  0 I1Cent=   200000004 NGrid=           0
         NMat0=    1 NMatS0=      1 NMatT0=    0 NMatD0=    1 NMtDS0=    0 NMtDT0=    0
 Petite list used in FoFCou.
 Initial guess orbital symmetries:
 Alpha Orbitals:
       Occupied  (A') (A') (A') (A') (A') (A') (A') (A') (A') (A')
                 (A') (A') (A') (A') (A') (A') (A') (A') (A') (A')
                 (A") (A') (A') (A') (A") (A") (A") (A') (A")
       Virtual   (A") (A") (A') (A') (A") (A') (A') (A') (A') (A')
                 (A') (A') (A") (A') (A') (A") (A') (A") (A') (A')
                 (A') (A') (A") (A') (A") (A') (A') (A') (A') (A')
                 (A') (A") (A') (A') (A") (A') (A') (A') (A') (A')
                 (A") (A') (A') (A') (A') (A') (A') (A') (A") (A')
                 (A') (A') (A") (A") (A') (A") (A') (A') (A") (A")
                 (A') (A') (A') (A') (A') (A") (A') (A') (A") (A")
                 (A') (A') (A") (A') (A') (A') (A") (A") (A") (A')
                 (A") (A') (A") (A") (A') (A') (A') (A") (A') (A")
                 (A') (A") (A') (A") (A') (A") (A') (A") (A') (A")
                 (A') (A') (A') (A') (A') (A') (A') (A') (A") (A')
                 (A') (A') (A') (A") (A') (A') (A') (A") (A') (A')
                 (A") (A') (A') (A') (A') (A') (A") (A') (A') (A')
                 (A') (A") (A') (A') (A') (A') (A") (A') (A") (A')
                 (A') (A") (A") (A') (A") (A") (A') (A") (A') (A")
                 (A') (A") (A') (A') (A') (A') (A') (A") (A') (A")
                 (A') (A') (A') (A") (A') (A') (A') (A') (A") (A')
                 (A") (A") (A") (A") (A') (A') (A") (A') (A") (A')
                 (A") (A') (A") (A') (A') (A') (A") (A') (A') (A')
                 (A") (A') (A") (A") (A') (A") (A') (A') (A') (A")
                 (A") (A") (A') (A") (A') (A") (A") (A") (A') (A")
                 (A") (A') (A') (A") (A') (A') (A") (A") (A") (A')
                 (A") (A") (A') (A') (A") (A') (A') (A') (A') (A")
                 (A') (A') (A") (A') (A') (A') (A') (A') (A") (A')
                 (A") (A') (A") (A') (A') (A") (A') (A') (A') (A")
                 (A') (A") (A') (A') (A') (A') (A') (A") (A') (A')
                 (A') (A") (A') (A') (A") (A') (A') (A') (A') (A')
                 (A") (A') (A') (A') (A") (A') (A') (A') (A') (A')
                 (A')
 Beta  Orbitals:
       Occupied  (A') (A') (A') (A') (A') (A') (A') (A') (A') (A')
                 (A') (A') (A') (A') (A') (A') (A') (A') (A') (A')
                 (A") (A') (A') (A') (A") (A") (A") (A')
       Virtual   (A") (A") (A") (A') (A') (A") (A') (A') (A') (A')
                 (A') (A') (A') (A") (A') (A') (A") (A') (A") (A')
                 (A') (A') (A') (A") (A') (A") (A') (A') (A') (A')
                 (A') (A') (A") (A') (A') (A") (A') (A') (A') (A')
                 (A') (A") (A') (A') (A') (A') (A') (A') (A') (A")
                 (A') (A') (A') (A") (A") (A') (A") (A') (A') (A")
                 (A") (A') (A') (A') (A') (A') (A") (A') (A') (A")
                 (A") (A') (A') (A") (A') (A') (A') (A") (A") (A")
                 (A') (A") (A') (A") (A") (A') (A') (A') (A") (A')
                 (A") (A') (A") (A') (A") (A') (A") (A') (A") (A')
                 (A") (A') (A') (A') (A') (A') (A') (A') (A') (A")
                 (A') (A') (A') (A') (A") (A') (A') (A') (A") (A')
                 (A') (A") (A') (A') (A') (A') (A') (A") (A') (A')
                 (A') (A') (A") (A') (A') (A') (A') (A") (A') (A")
                 (A') (A') (A") (A") (A') (A") (A") (A') (A") (A')
                 (A") (A') (A") (A') (A') (A') (A') (A') (A") (A')
                 (A") (A') (A') (A') (A") (A') (A') (A') (A') (A")
                 (A') (A") (A") (A") (A") (A') (A') (A") (A') (A")
                 (A') (A") (A') (A") (A') (A') (A') (A") (A') (A')
                 (A') (A") (A') (A") (A") (A') (A") (A') (A') (A')
                 (A") (A") (A") (A') (A") (A') (A") (A") (A") (A')
                 (A") (A") (A') (A') (A") (A') (A') (A") (A") (A")
                 (A') (A") (A") (A') (A') (A") (A') (A') (A') (A')
                 (A") (A') (A') (A") (A') (A') (A') (A') (A') (A")
                 (A') (A") (A') (A") (A') (A') (A") (A') (A') (A')
                 (A") (A') (A") (A') (A') (A') (A') (A') (A") (A')
                 (A') (A') (A") (A') (A') (A") (A') (A') (A') (A')
                 (A') (A") (A') (A') (A') (A") (A') (A') (A') (A')
                 (A') (A')
 The electronic state of the initial guess is 2-A".
 Initial guess <Sx>= 0.0000 <Sy>= 0.0000 <Sz>= 0.5000 <S**2>= 0.7500 S= 0.5000
 Requested convergence on RMS density matrix=1.00D-08 within 128 cycles.
 Requested convergence on MAX density matrix=1.00D-06.
 Requested convergence on             energy=1.00D-06.
 No special actions if energy rises.
 Integral accuracy reduced to 1.0D-05 until final iterations.
 Initial convergence to 1.0D-05 achieved.  Increase integral accuracy.
 SCF Done:  E(UB3LYP) =  -382.110459455     A.U. after   19 cycles
            NFock= 19  Conv=0.72D-08     -V/T= 2.0035
 <Sx>= 0.0000 <Sy>= 0.0000 <Sz>= 0.5000 <S**2>= 0.7573 S= 0.5036
 <L.S>=  0.00000000000    
 Annihilation of the first spin contaminant:
 S**2 before annihilation     0.7573,   after     0.7500

 **********************************************************************

            Population analysis using the SCF Density.

 **********************************************************************

 Orbital symmetries:
 Alpha Orbitals:
       Occupied  (A') (A') (A') (A') (A') (A') (A') (A') (A') (A')
                 (A') (A') (A') (A') (A') (A') (A") (A') (A') (A')
                 (A') (A') (A") (A') (A') (A") (A') (A") (A")
       Virtual   (A") (A") (A') (A') (A') (A') (A') (A') (A') (A")
                 (A") (A') (A') (A') (A") (A') (A") (A') (A') (A')
                 (A") (A") (A') (A') (A') (A') (A') (A') (A') (A")
                 (A') (A') (A') (A") (A') (A') (A') (A') (A') (A')
                 (A") (A') (A') (A') (A') (A') (A') (A") (A') (A')
                 (A') (A') (A") (A') (A") (A") (A") (A') (A') (A')
                 (A") (A') (A') (A') (A') (A") (A') (A') (A') (A")
                 (A") (A') (A') (A") (A') (A') (A") (A") (A') (A")
                 (A") (A") (A') (A") (A') (A') (A') (A") (A') (A")
                 (A') (A") (A') (A") (A') (A") (A') (A") (A') (A")
                 (A') (A') (A') (A') (A') (A') (A') (A") (A') (A')
                 (A') (A") (A') (A') (A') (A') (A') (A") (A') (A')
                 (A") (A') (A') (A') (A') (A") (A') (A') (A') (A')
                 (A") (A') (A') (A') (A') (A') (A") (A') (A") (A')
                 (A') (A") (A") (A") (A") (A') (A') (A") (A') (A")
                 (A") (A') (A') (A') (A') (A') (A') (A") (A") (A')
                 (A') (A') (A') (A") (A') (A') (A') (A') (A") (A')
                 (A") (A") (A") (A") (A') (A") (A') (A") (A') (A')
                 (A") (A') (A") (A') (A') (A') (A') (A") (A') (A')
                 (A") (A') (A') (A") (A") (A') (A") (A') (A') (A")
                 (A") (A') (A") (A') (A") (A") (A") (A') (A") (A")
                 (A") (A') (A") (A') (A') (A') (A") (A") (A') (A")
                 (A") (A') (A") (A') (A") (A') (A') (A') (A') (A")
                 (A') (A") (A') (A') (A') (A') (A') (A') (A") (A')
                 (A") (A') (A") (A') (A") (A') (A') (A') (A") (A')
                 (A") (A') (A') (A') (A') (A') (A') (A") (A') (A')
                 (A") (A') (A') (A") (A') (A') (A') (A') (A") (A')
                 (A') (A') (A') (A") (A') (A') (A') (A') (A') (A')
                 (A')
 Beta  Orbitals:
       Occupied  (A') (A') (A') (A') (A') (A') (A') (A') (A') (A')
                 (A') (A') (A') (A') (A') (A') (A') (A') (A') (A")
                 (A') (A') (A') (A") (A') (A") (A') (A")
       Virtual   (A") (A") (A") (A') (A') (A') (A') (A') (A') (A')
                 (A") (A') (A") (A') (A') (A") (A') (A") (A') (A')
                 (A') (A") (A") (A') (A') (A') (A') (A') (A') (A')
                 (A") (A') (A') (A') (A') (A") (A') (A') (A') (A')
                 (A') (A") (A') (A') (A') (A') (A') (A') (A') (A")
                 (A') (A') (A') (A") (A') (A") (A") (A") (A') (A')
                 (A') (A") (A') (A') (A') (A') (A") (A') (A') (A')
                 (A") (A") (A') (A') (A") (A') (A') (A") (A") (A')
                 (A") (A") (A") (A') (A") (A') (A') (A') (A") (A')
                 (A") (A') (A") (A') (A") (A') (A") (A') (A") (A')
                 (A") (A') (A') (A') (A') (A') (A') (A') (A") (A')
                 (A') (A') (A") (A') (A') (A') (A') (A') (A") (A')
                 (A') (A") (A') (A') (A') (A') (A') (A") (A') (A')
                 (A') (A') (A") (A') (A') (A') (A') (A") (A') (A")
                 (A') (A') (A") (A") (A") (A") (A') (A') (A") (A')
                 (A") (A") (A') (A') (A') (A') (A') (A') (A") (A")
                 (A') (A') (A') (A') (A") (A') (A') (A') (A') (A")
                 (A') (A") (A") (A") (A") (A') (A") (A') (A') (A")
                 (A') (A") (A') (A") (A') (A') (A') (A") (A') (A')
                 (A') (A") (A') (A') (A") (A") (A') (A") (A') (A')
                 (A") (A") (A') (A") (A') (A") (A") (A") (A") (A')
                 (A") (A") (A') (A') (A") (A') (A') (A") (A") (A')
                 (A") (A") (A') (A") (A') (A") (A') (A') (A') (A')
                 (A") (A') (A") (A') (A') (A') (A') (A') (A') (A")
                 (A') (A") (A') (A") (A') (A') (A") (A') (A') (A')
                 (A") (A") (A') (A') (A') (A') (A') (A') (A") (A')
                 (A') (A') (A') (A") (A") (A') (A') (A') (A') (A")
                 (A') (A') (A') (A') (A") (A') (A') (A') (A') (A')
                 (A') (A')
 The electronic state is 2-A".
 Alpha  occ. eigenvalues --  -19.26470 -19.19958 -10.25562 -10.20263 -10.20012
 Alpha  occ. eigenvalues --  -10.20004 -10.19833 -10.19736  -1.21210  -0.92195
 Alpha  occ. eigenvalues --   -0.86457  -0.77585  -0.75230  -0.63933  -0.62184
 Alpha  occ. eigenvalues --   -0.56699  -0.52053  -0.51637  -0.51009  -0.46688
 Alpha  occ. eigenvalues --   -0.45408  -0.44623  -0.39726  -0.39113  -0.37304
 Alpha  occ. eigenvalues --   -0.32450  -0.29627  -0.28418  -0.25646
 Alpha virt. eigenvalues --   -0.03893  -0.02620   0.00938   0.03240   0.04397
 Alpha virt. eigenvalues --    0.05673   0.07246   0.08636   0.11230   0.11858
 Alpha virt. eigenvalues --    0.15231   0.15293   0.16470   0.16871   0.18681
 Alpha virt. eigenvalues --    0.19102   0.19555   0.21447   0.22932   0.24402
 Alpha virt. eigenvalues --    0.26166   0.26529   0.27410   0.27659   0.29220
 Alpha virt. eigenvalues --    0.29326   0.30634   0.31196   0.32560   0.33353
 Alpha virt. eigenvalues --    0.34617   0.35705   0.36481   0.38007   0.38048
 Alpha virt. eigenvalues --    0.41648   0.42153   0.42963   0.43918   0.45016
 Alpha virt. eigenvalues --    0.45260   0.49887   0.54411   0.56124   0.57985
 Alpha virt. eigenvalues --    0.60115   0.61793   0.63677   0.63796   0.65265
 Alpha virt. eigenvalues --    0.67850   0.68086   0.74455   0.74659   0.77331
 Alpha virt. eigenvalues --    0.78291   0.82567   0.83543   0.84207   0.88364
 Alpha virt. eigenvalues --    0.90998   0.95791   0.97050   0.98230   1.01782
 Alpha virt. eigenvalues --    1.03367   1.05748   1.06790   1.08567   1.10064
 Alpha virt. eigenvalues --    1.11325   1.11541   1.14159   1.14700   1.18312
 Alpha virt. eigenvalues --    1.18605   1.20918   1.23173   1.24797   1.26805
 Alpha virt. eigenvalues --    1.27501   1.28032   1.30080   1.33512   1.35592
 Alpha virt. eigenvalues --    1.37320   1.39958   1.43514   1.43831   1.45930
 Alpha virt. eigenvalues --    1.48464   1.52095   1.52947   1.55625   1.56199
 Alpha virt. eigenvalues --    1.58485   1.59188   1.59311   1.61112   1.64350
 Alpha virt. eigenvalues --    1.65928   1.69003   1.72686   1.74901   1.77828
 Alpha virt. eigenvalues --    1.78418   1.83012   1.83034   1.85519   1.87790
 Alpha virt. eigenvalues --    1.89909   1.90366   1.92646   1.93012   1.96549
 Alpha virt. eigenvalues --    1.97290   2.01185   2.03223   2.06812   2.08622
 Alpha virt. eigenvalues --    2.09293   2.16921   2.18400   2.19636   2.21443
 Alpha virt. eigenvalues --    2.25173   2.26026   2.32811   2.39475   2.44176
 Alpha virt. eigenvalues --    2.48160   2.49228   2.57796   2.60195   2.68382
 Alpha virt. eigenvalues --    2.71176   2.82778   2.84112   2.91332   2.96059
 Alpha virt. eigenvalues --    3.09268   3.12825   3.13443   3.19891   3.20593
 Alpha virt. eigenvalues --    3.21398   3.24930   3.26594   3.30696   3.31868
 Alpha virt. eigenvalues --    3.32639   3.35075   3.42655   3.44360   3.52234
 Alpha virt. eigenvalues --    3.53563   3.55715   3.56825   3.60000   3.61161
 Alpha virt. eigenvalues --    3.61659   3.67167   3.69085   3.71816   3.79344
 Alpha virt. eigenvalues --    3.79966   3.81772   3.82844   3.85422   3.87233
 Alpha virt. eigenvalues --    3.91078   3.93653   3.94681   3.97426   3.97748
 Alpha virt. eigenvalues --    3.98280   3.98846   4.00470   4.01938   4.03798
 Alpha virt. eigenvalues --    4.06201   4.06787   4.10541   4.10680   4.12290
 Alpha virt. eigenvalues --    4.13497   4.16872   4.17452   4.19597   4.20034
 Alpha virt. eigenvalues --    4.21457   4.22374   4.26001   4.26797   4.28113
 Alpha virt. eigenvalues --    4.28149   4.29933   4.32165   4.32802   4.33403
 Alpha virt. eigenvalues --    4.33554   4.36874   4.38313   4.40240   4.40744
 Alpha virt. eigenvalues --    4.44390   4.45873   4.47078   4.47725   4.50033
 Alpha virt. eigenvalues --    4.51307   4.54993   4.56905   4.57109   4.59158
 Alpha virt. eigenvalues --    4.64874   4.65300   4.69047   4.72549   4.73571
 Alpha virt. eigenvalues --    4.74341   4.81119   4.81451   4.84116   4.86144
 Alpha virt. eigenvalues --    4.87733   4.93552   4.95178   4.99157   4.99854
 Alpha virt. eigenvalues --    5.06023   5.07390   5.10595   5.12363   5.13334
 Alpha virt. eigenvalues --    5.15488   5.18072   5.22611   5.25079   5.29627
 Alpha virt. eigenvalues --    5.29923   5.32046   5.35611   5.37189   5.45725
 Alpha virt. eigenvalues --    5.45877   5.48039   5.50912   5.50948   5.52657
 Alpha virt. eigenvalues --    5.54946   5.55773   5.63360   5.68098   5.71077
 Alpha virt. eigenvalues --    5.74486   5.77526   5.82010   5.94352   5.95412
 Alpha virt. eigenvalues --    5.96960   5.98913   6.01852   6.11935   6.13269
 Alpha virt. eigenvalues --    6.18579   6.26951   6.35860   6.38558   6.42198
 Alpha virt. eigenvalues --    6.43538   6.47325   6.58045   6.60270   6.63583
 Alpha virt. eigenvalues --    6.81889   6.95808   7.10894   7.31967  11.15769
 Alpha virt. eigenvalues --   11.91558
  Beta  occ. eigenvalues --  -19.25513 -19.18099 -10.25668 -10.20164 -10.20058
  Beta  occ. eigenvalues --  -10.20043 -10.19747 -10.19632  -1.18830  -0.90481
  Beta  occ. eigenvalues --   -0.85155  -0.77490  -0.74458  -0.63839  -0.61576
  Beta  occ. eigenvalues --   -0.56068  -0.50996  -0.50611  -0.46628  -0.46614
  Beta  occ. eigenvalues --   -0.45178  -0.44159  -0.39014  -0.38230  -0.37232
  Beta  occ. eigenvalues --   -0.28195  -0.28026  -0.27508
  Beta virt. eigenvalues --   -0.13505  -0.03622  -0.01821   0.00964   0.03248
  Beta virt. eigenvalues --    0.04459   0.06055   0.07337   0.09104   0.12053
  Beta virt. eigenvalues --    0.12070   0.15353   0.15384   0.16530   0.16993
  Beta virt. eigenvalues --    0.18763   0.19139   0.19864   0.21536   0.23045
  Beta virt. eigenvalues --    0.24558   0.26410   0.26730   0.27505   0.27711
  Beta virt. eigenvalues --    0.29293   0.29362   0.30731   0.31291   0.32630
  Beta virt. eigenvalues --    0.33417   0.34853   0.35778   0.36651   0.38140
  Beta virt. eigenvalues --    0.39915   0.41747   0.42253   0.43023   0.43950
  Beta virt. eigenvalues --    0.45085   0.46731   0.50041   0.54554   0.56247
  Beta virt. eigenvalues --    0.58068   0.60165   0.61824   0.63831   0.63831
  Beta virt. eigenvalues --    0.65369   0.67978   0.68173   0.74516   0.75160
  Beta virt. eigenvalues --    0.77502   0.78453   0.82642   0.83638   0.84217
  Beta virt. eigenvalues --    0.88742   0.91174   0.95918   0.97095   0.98272
  Beta virt. eigenvalues --    1.01856   1.03516   1.05939   1.06838   1.08641
  Beta virt. eigenvalues --    1.10322   1.11434   1.11751   1.14200   1.14872
  Beta virt. eigenvalues --    1.18348   1.18666   1.21251   1.23301   1.25046
  Beta virt. eigenvalues --    1.27215   1.27650   1.29358   1.30108   1.34213
  Beta virt. eigenvalues --    1.35602   1.37391   1.40036   1.43684   1.43959
  Beta virt. eigenvalues --    1.47260   1.49364   1.53092   1.53274   1.55761
  Beta virt. eigenvalues --    1.56748   1.58801   1.59346   1.59685   1.61364
  Beta virt. eigenvalues --    1.64645   1.66113   1.69187   1.73022   1.74996
  Beta virt. eigenvalues --    1.78184   1.78721   1.83789   1.84402   1.85660
  Beta virt. eigenvalues --    1.87875   1.90450   1.91106   1.92727   1.93138
  Beta virt. eigenvalues --    1.96865   1.97626   2.01932   2.04434   2.07166
  Beta virt. eigenvalues --    2.08986   2.12850   2.16973   2.18496   2.19773
  Beta virt. eigenvalues --    2.21616   2.26133   2.28746   2.33051   2.39784
  Beta virt. eigenvalues --    2.44544   2.49652   2.52276   2.58042   2.60295
  Beta virt. eigenvalues --    2.68500   2.71417   2.82987   2.84945   2.91487
  Beta virt. eigenvalues --    2.96529   3.09971   3.12988   3.13579   3.19952
  Beta virt. eigenvalues --    3.20735   3.21521   3.25310   3.26805   3.30775
  Beta virt. eigenvalues --    3.32113   3.32895   3.35169   3.42746   3.44628
  Beta virt. eigenvalues --    3.52739   3.53682   3.55996   3.57244   3.60174
  Beta virt. eigenvalues --    3.61494   3.61757   3.68089   3.69226   3.73609
  Beta virt. eigenvalues --    3.79460   3.80252   3.82133   3.82918   3.86702
  Beta virt. eigenvalues --    3.88770   3.91947   3.93827   3.95138   3.97498
  Beta virt. eigenvalues --    3.98492   3.98964   3.99685   4.02039   4.02341
  Beta virt. eigenvalues --    4.04016   4.06430   4.07657   4.10573   4.11492
  Beta virt. eigenvalues --    4.12760   4.13677   4.17611   4.17642   4.19783
  Beta virt. eigenvalues --    4.20182   4.21581   4.22543   4.26490   4.27007
  Beta virt. eigenvalues --    4.28256   4.28330   4.30092   4.32483   4.33082
  Beta virt. eigenvalues --    4.33462   4.33577   4.37674   4.38773   4.40434
  Beta virt. eigenvalues --    4.40921   4.44492   4.45850   4.47908   4.47951
  Beta virt. eigenvalues --    4.50128   4.51541   4.55063   4.57169   4.57470
  Beta virt. eigenvalues --    4.59256   4.65133   4.65528   4.69187   4.72632
  Beta virt. eigenvalues --    4.73705   4.74480   4.81218   4.81733   4.84244
  Beta virt. eigenvalues --    4.86350   4.87835   4.93577   4.95240   4.99188
  Beta virt. eigenvalues --    5.00217   5.06046   5.08101   5.10667   5.12413
  Beta virt. eigenvalues --    5.13505   5.15543   5.18164   5.22704   5.25173
  Beta virt. eigenvalues --    5.29924   5.29981   5.32130   5.36078   5.37233
  Beta virt. eigenvalues --    5.45938   5.46090   5.48152   5.51067   5.52832
  Beta virt. eigenvalues --    5.53085   5.55835   5.56107   5.63478   5.68148
  Beta virt. eigenvalues --    5.71129   5.74631   5.77793   5.82201   5.94484
  Beta virt. eigenvalues --    5.96145   5.99099   6.01968   6.02792   6.16431
  Beta virt. eigenvalues --    6.17861   6.20295   6.27957   6.36437   6.42248
  Beta virt. eigenvalues --    6.42373   6.43973   6.48146   6.59524   6.63739
  Beta virt. eigenvalues --    6.63792   6.82170   6.96202   7.11082   7.32855
  Beta virt. eigenvalues --   11.15939  11.92461
          Condensed to atoms (all electrons):
               1          2          3          4          5          6
     1  C    4.961855   0.369507   0.021548  -0.072565   0.019283   0.378878
     2  C    0.369507   5.011626   0.381157  -0.015150  -0.108713   0.038413
     3  C    0.021548   0.381157   4.914472   0.442995  -0.007361  -0.098202
     4  C   -0.072565  -0.015150   0.442995   4.867996   0.448634  -0.027329
     5  C    0.019283  -0.108713  -0.007361   0.448634   4.881452   0.425510
     6  C    0.378878   0.038413  -0.098202  -0.027329   0.425510   4.928424
     7  O    0.229835  -0.056960   0.012561  -0.002403   0.005296  -0.031656
     8  O   -0.070994  -0.013142  -0.007056   0.001071  -0.002146   0.014523
     9  H   -0.060954   0.461881  -0.054587   0.013404  -0.006648   0.015051
    10  H    0.011029  -0.050878   0.459047  -0.054159   0.014775  -0.005214
    11  H   -0.006060   0.016145  -0.054737   0.457166  -0.055298   0.015555
    12  H    0.014772  -0.007013   0.015776  -0.054034   0.460799  -0.054449
    13  H   -0.081806   0.019571  -0.007916   0.015521  -0.053989   0.465372
               7          8          9         10         11         12
     1  C    0.229835  -0.070994  -0.060954   0.011029  -0.006060   0.014772
     2  C   -0.056960  -0.013142   0.461881  -0.050878   0.016145  -0.007013
     3  C    0.012561  -0.007056  -0.054587   0.459047  -0.054737   0.015776
     4  C   -0.002403   0.001071   0.013404  -0.054159   0.457166  -0.054034
     5  C    0.005296  -0.002146  -0.006648   0.014775  -0.055298   0.460799
     6  C   -0.031656   0.014523   0.015051  -0.005214   0.015555  -0.054449
     7  O    7.890256   0.037744  -0.012112   0.000080   0.000010  -0.000242
     8  O    0.037744   8.228025   0.031032  -0.000353   0.000015   0.000004
     9  H   -0.012112   0.031032   0.566911  -0.009446   0.000200  -0.000040
    10  H    0.000080  -0.000353  -0.009446   0.611513  -0.009864  -0.000038
    11  H    0.000010   0.000015   0.000200  -0.009864   0.615749  -0.010059
    12  H   -0.000242   0.000004  -0.000040  -0.000038  -0.010059   0.612739
    13  H    0.014295   0.000179   0.000605   0.000008   0.000127  -0.011181
              13
     1  C   -0.081806
     2  C    0.019571
     3  C   -0.007916
     4  C    0.015521
     5  C   -0.053989
     6  C    0.465372
     7  O    0.014295
     8  O    0.000179
     9  H    0.000605
    10  H    0.000008
    11  H    0.000127
    12  H   -0.011181
    13  H    0.599743
          Atomic-Atomic Spin Densities.
               1          2          3          4          5          6
     1  C   -0.088366   0.016632  -0.003045   0.001553   0.001507   0.006884
     2  C    0.016632   0.064751  -0.005703  -0.006856   0.001146   0.000766
     3  C   -0.003045  -0.005703  -0.030634   0.006995  -0.000023  -0.000177
     4  C    0.001553  -0.006856   0.006995   0.080687  -0.002639  -0.004782
     5  C    0.001507   0.001146  -0.000023  -0.002639  -0.038549  -0.000033
     6  C    0.006884   0.000766  -0.000177  -0.004782  -0.000033   0.078329
     7  O   -0.000803  -0.006084   0.001263   0.000228  -0.000100  -0.014839
     8  O    0.019828  -0.000710  -0.000232  -0.000278   0.000107   0.003061
     9  H    0.003266   0.000809   0.000637  -0.000306   0.000188  -0.000617
    10  H   -0.000284  -0.000003  -0.000286   0.000124  -0.000045   0.000076
    11  H    0.000100  -0.000154   0.000007   0.001190  -0.000071  -0.000093
    12  H   -0.000198   0.000045  -0.000024   0.000163  -0.000299  -0.000030
    13  H    0.001685  -0.000664   0.000198  -0.000244  -0.000017   0.001021
               7          8          9         10         11         12
     1  C   -0.000803   0.019828   0.003266  -0.000284   0.000100  -0.000198
     2  C   -0.006084  -0.000710   0.000809  -0.000003  -0.000154   0.000045
     3  C    0.001263  -0.000232   0.000637  -0.000286   0.000007  -0.000024
     4  C    0.000228  -0.000278  -0.000306   0.000124   0.001190   0.000163
     5  C   -0.000100   0.000107   0.000188  -0.000045  -0.000071  -0.000299
     6  C   -0.014839   0.003061  -0.000617   0.000076  -0.000093  -0.000030
     7  O    0.423776  -0.143860   0.000045   0.000004  -0.000002   0.000018
     8  O   -0.143860   0.777480  -0.003174   0.000052  -0.000002   0.000001
     9  H    0.000045  -0.003174  -0.006078   0.000171  -0.000012   0.000004
    10  H    0.000004   0.000052   0.000171   0.001120   0.000064  -0.000005
    11  H   -0.000002  -0.000002  -0.000012   0.000064  -0.004511   0.000067
    12  H    0.000018   0.000001   0.000004  -0.000005   0.000067   0.001465
    13  H   -0.000868   0.000030  -0.000069   0.000006  -0.000004   0.000068
              13
     1  C    0.001685
     2  C   -0.000664
     3  C    0.000198
     4  C   -0.000244
     5  C   -0.000017
     6  C    0.001021
     7  O   -0.000868
     8  O    0.000030
     9  H   -0.000069
    10  H    0.000006
    11  H   -0.000004
    12  H    0.000068
    13  H   -0.004215
 Mulliken charges and spin densities:
               1          2
     1  C    0.285673  -0.041242
     2  C   -0.046442   0.063974
     3  C   -0.017698  -0.031025
     4  C   -0.021147   0.075835
     5  C   -0.021594  -0.038828
     6  C   -0.064876   0.069566
     7  O   -0.086703   0.258778
     8  O   -0.218901   0.652303
     9  H    0.054702  -0.005137
    10  H    0.033500   0.000994
    11  H    0.031050  -0.003421
    12  H    0.032966   0.001276
    13  H    0.039469  -0.003073
 Sum of Mulliken charges =  -0.00000   1.00000
 Mulliken charges and spin densities with hydrogens summed into heavy atoms:
               1          2
     1  C    0.285673  -0.041242
     2  C    0.008260   0.058837
     3  C    0.015802  -0.030031
     4  C    0.009903   0.072414
     5  C    0.011372  -0.037552
     6  C   -0.025406   0.066493
     7  O   -0.086703   0.258778
     8  O   -0.218901   0.652303
 Electronic spatial extent (au):  <R**2>=            901.7485
 Charge=             -0.0000 electrons
 Dipole moment (field-independent basis, Debye):
    X=              1.4321    Y=             -2.8630    Z=              0.0000  Tot=              3.2012
 Quadrupole moment (field-independent basis, Debye-Ang):
   XX=            -42.1931   YY=            -48.0197   ZZ=            -48.4730
   XY=              3.4380   XZ=              0.0000   YZ=              0.0000
 Traceless Quadrupole moment (field-independent basis, Debye-Ang):
   XX=              4.0355   YY=             -1.7911   ZZ=             -2.2444
   XY=              3.4380   XZ=              0.0000   YZ=              0.0000
 Octapole moment (field-independent basis, Debye-Ang**2):
  XXX=              1.2070  YYY=            -13.1655  ZZZ=              0.0000  XYY=              7.7284
  XXY=             -2.6639  XXZ=              0.0000  XZZ=             -4.0096  YZZ=             10.2788
  YYZ=              0.0000  XYZ=              0.0000
 Hexadecapole moment (field-independent basis, Debye-Ang**3):
 XXXX=           -370.2853 YYYY=           -718.2277 ZZZZ=            -53.7791 XXXY=             93.3200
 XXXZ=              0.0000 YYYX=            107.7767 YYYZ=              0.0000 ZZZX=              0.0000
 ZZZY=              0.0000 XXYY=           -184.5196 XXZZ=            -82.3457 YYZZ=           -134.0332
 XXYZ=              0.0000 YYXZ=              0.0000 ZZXY=             29.8649
 N-N= 3.351456176958D+02 E-N=-1.563219116237D+03  KE= 3.807864755406D+02
 Symmetry A'   KE= 3.668314634942D+02
 Symmetry A"   KE= 1.395501204643D+01
 Symmetry A'   SP=-9.855578960004D-15
 Symmetry A"   SP= 1.000000000000D+00
                          Isotropic Fermi Contact Couplings
        Atom                 a.u.       MegaHertz       Gauss      10(-4) cm-1
     1  C(13)             -0.01792     -20.14091      -7.18678      -6.71828
     2  C(13)              0.00723       8.12673       2.89982       2.71079
     3  C(13)             -0.00623      -7.00819      -2.50070      -2.33768
     4  C(13)              0.00924      10.39286       3.70843       3.46668
     5  C(13)             -0.00753      -8.46866      -3.02183      -2.82484
     6  C(13)              0.00851       9.56160       3.41181       3.18940
     7  O(17)              0.09402     -56.99386     -20.33683     -19.01110
     8  O(17)              0.15656     -94.90373     -33.86401     -31.65648
     9  H(1)              -0.00103      -4.59666      -1.64020      -1.53328
    10  H(1)               0.00032       1.41583       0.50520       0.47227
    11  H(1)              -0.00110      -4.90012      -1.74848      -1.63450
    12  H(1)               0.00042       1.88310       0.67194       0.62813
    13  H(1)              -0.00107      -4.78475      -1.70732      -1.59602
 --------------------------------------------------------
       Center         ----  Spin Dipole Couplings  ----
                      3XX-RR        3YY-RR        3ZZ-RR
 --------------------------------------------------------
     1   Atom        0.023157      0.045984     -0.069140
     2   Atom       -0.040682     -0.024698      0.065380
     3   Atom        0.012012      0.016707     -0.028719
     4   Atom       -0.044327     -0.039506      0.083833
     5   Atom        0.017232      0.020466     -0.037699
     6   Atom       -0.040405     -0.040312      0.080717
     7   Atom       -0.808355     -0.746895      1.555250
     8   Atom       -1.478802     -1.454169      2.932971
     9   Atom       -0.001685      0.008300     -0.006615
    10   Atom       -0.000180      0.002333     -0.002153
    11   Atom       -0.005136      0.005524     -0.000388
    12   Atom       -0.000391      0.002366     -0.001975
    13   Atom        0.005779     -0.002001     -0.003777
 --------------------------------------------------------
                        XY            XZ            YZ
 --------------------------------------------------------
     1   Atom       -0.009473      0.000000      0.000000
     2   Atom       -0.001271      0.000000      0.000000
     3   Atom       -0.001983      0.000000      0.000000
     4   Atom       -0.001749      0.000000      0.000000
     5   Atom       -0.001046      0.000000      0.000000
     6   Atom       -0.004491      0.000000      0.000000
     7   Atom       -0.013287      0.000000      0.000000
     8   Atom        0.014281      0.000000      0.000000
     9   Atom        0.004530      0.000000      0.000000
    10   Atom       -0.000811      0.000000      0.000000
    11   Atom       -0.003280      0.000000      0.000000
    12   Atom       -0.000570      0.000000      0.000000
    13   Atom        0.000681      0.000000      0.000000
 --------------------------------------------------------


 ---------------------------------------------------------------------------------
              Anisotropic Spin Dipole Couplings in Principal Axis System
 ---------------------------------------------------------------------------------

       Atom             a.u.   MegaHertz   Gauss  10(-4) cm-1        Axes

              Baa    -0.0691    -9.278    -3.311    -3.095  0.0000  0.0000  1.0000
     1 C(13)  Bbb     0.0197     2.649     0.945     0.883  0.9406  0.3395  0.0000
              Bcc     0.0494     6.629     2.366     2.211 -0.3395  0.9406  0.0000
 
              Baa    -0.0408    -5.473    -1.953    -1.825  0.9969  0.0788  0.0000
     2 C(13)  Bbb    -0.0246    -3.301    -1.178    -1.101 -0.0788  0.9969 -0.0000
              Bcc     0.0654     8.773     3.131     2.926  0.0000  0.0000  1.0000
 
              Baa    -0.0287    -3.854    -1.375    -1.286  0.0000  0.0000  1.0000
     3 C(13)  Bbb     0.0113     1.515     0.540     0.505  0.9391  0.3436  0.0000
              Bcc     0.0174     2.339     0.835     0.780 -0.3436  0.9391  0.0000
 
              Baa    -0.0449    -6.024    -2.150    -2.010  0.9512  0.3087  0.0000
     4 C(13)  Bbb    -0.0389    -5.225    -1.864    -1.743 -0.3087  0.9512 -0.0000
              Bcc     0.0838    11.250     4.014     3.752  0.0000  0.0000  1.0000
 
              Baa    -0.0377    -5.059    -1.805    -1.687  0.0000  0.0000  1.0000
     5 C(13)  Bbb     0.0169     2.271     0.810     0.758  0.9591  0.2832  0.0000
              Bcc     0.0208     2.788     0.995     0.930 -0.2832  0.9591  0.0000
 
              Baa    -0.0448    -6.018    -2.147    -2.008  0.7108  0.7034  0.0000
     6 C(13)  Bbb    -0.0359    -4.813    -1.717    -1.605 -0.7034  0.7108 -0.0000
              Bcc     0.0807    10.831     3.865     3.613  0.0000  0.0000  1.0000
 
              Baa    -0.8111    58.691    20.942    19.577  0.9793  0.2026  0.0000
     7 O(17)  Bbb    -0.7441    53.846    19.214    17.961 -0.2026  0.9793 -0.0000
              Bcc     1.5553  -112.537   -40.156   -37.538  0.0000  0.0000  1.0000
 
              Baa    -1.4853   107.478    38.351    35.851  0.9091 -0.4165 -0.0000
     8 O(17)  Bbb    -1.4476   104.749    37.377    34.941  0.4165  0.9091  0.0000
              Bcc     2.9330  -212.228   -75.728   -70.792  0.0000  0.0000  1.0000
 
              Baa    -0.0066    -3.529    -1.259    -1.177  0.0000  0.0000  1.0000
     9 H(1)   Bbb    -0.0034    -1.832    -0.654    -0.611  0.9329 -0.3602 -0.0000
              Bcc     0.0100     5.362     1.913     1.788  0.3602  0.9329  0.0000
 
              Baa    -0.0022    -1.149    -0.410    -0.383  0.0000  0.0000  1.0000
    10 H(1)   Bbb    -0.0004    -0.223    -0.080    -0.075  0.9592  0.2828  0.0000
              Bcc     0.0026     1.372     0.490     0.458 -0.2828  0.9592  0.0000
 
              Baa    -0.0061    -3.235    -1.154    -1.079  0.9622  0.2723  0.0000
    11 H(1)   Bbb    -0.0004    -0.207    -0.074    -0.069  0.0000  0.0000  1.0000
              Bcc     0.0065     3.443     1.228     1.148 -0.2723  0.9622  0.0000
 
              Baa    -0.0020    -1.054    -0.376    -0.351  0.0000  0.0000  1.0000
    12 H(1)   Bbb    -0.0005    -0.269    -0.096    -0.090  0.9809  0.1947  0.0000
              Bcc     0.0025     1.323     0.472     0.441 -0.1947  0.9809  0.0000
 
              Baa    -0.0038    -2.015    -0.719    -0.672  0.0000  0.0000  1.0000
    13 H(1)   Bbb    -0.0021    -1.099    -0.392    -0.367 -0.0866  0.9962 -0.0000
              Bcc     0.0058     3.115     1.111     1.039  0.9962  0.0866  0.0000
 

 ---------------------------------------------------------------------------------

 Calling FoFJK, ICntrl=      2127 FMM=F ISym2X=1 I1Cent= 0 IOpClX= 1 NMat=1 NMatS=1 NMatT=0.
 ***** Axes restored to original set *****
 -------------------------------------------------------------------
 Center     Atomic                   Forces (Hartrees/Bohr)
 Number     Number              X              Y              Z
 -------------------------------------------------------------------
      1        6          -0.003193101    0.000261577   -0.000000000
      2        6          -0.000168238   -0.001093247   -0.000000000
      3        6           0.000365834    0.000008856   -0.000000000
      4        6           0.000364713   -0.000158830   -0.000000000
      5        6           0.000293595    0.000049200   -0.000000000
      6        6           0.000002450    0.000587378   -0.000000000
      7        8          -0.001330320   -0.000501628   -0.000000000
      8        8           0.002347512    0.000873241   -0.000000000
      9        1          -0.001919821   -0.000854499   -0.000000000
     10        1           0.000679905   -0.002193731   -0.000000000
     11        1           0.002195339   -0.000431898   -0.000000000
     12        1           0.001429663    0.001770312   -0.000000000
     13        1          -0.001067533    0.001683269   -0.000000000
 -------------------------------------------------------------------
 Cartesian Forces:  Max     0.003193101 RMS     0.001066458

 GradGradGradGradGradGradGradGradGradGradGradGradGradGradGradGradGradGrad
 Berny optimization.
 FormGI is forming the generalized inverse of G from B-inverse, IUseBI=4.
 Internal  Forces:  Max     0.003060297 RMS     0.001169303
 Search for a local minimum.
 Step number   1 out of a maximum of   68
 All quantities printed in internal units (Hartrees-Bohrs-Radians)
 Mixed Optimization -- RFO/linear search
 Second derivative matrix not updated -- first step.
 ITU=  0
     Eigenvalues ---    0.01735   0.02131   0.02158   0.02171   0.02180
     Eigenvalues ---    0.02189   0.02200   0.02209   0.02214   0.02219
     Eigenvalues ---    0.16000   0.16000   0.16000   0.16000   0.16000
     Eigenvalues ---    0.22000   0.22000   0.23505   0.25000   0.25000
     Eigenvalues ---    0.35431   0.35464   0.35476   0.35550   0.35885
     Eigenvalues ---    0.42489   0.42719   0.46172   0.46612   0.46890
     Eigenvalues ---    0.47179   0.47274   0.62723
 RFO step:  Lambda=-2.09004155D-04 EMin= 1.73544349D-02
 Linear search not attempted -- first point.
 Iteration  1 RMS(Cart)=  0.00632852 RMS(Int)=  0.00003363
 Iteration  2 RMS(Cart)=  0.00003194 RMS(Int)=  0.00000011
 Iteration  3 RMS(Cart)=  0.00000000 RMS(Int)=  0.00000011
 ClnCor:  largest displacement from symmetrization is 3.28D-11 for atom    12.
 Variable       Old X    -DE/DX   Delta X   Delta X   Delta X     New X
                                 (Linear)    (Quad)   (Total)
    R1        2.62581  -0.00223   0.00000  -0.00466  -0.00466   2.62115
    R2        2.62901  -0.00216   0.00000  -0.00455  -0.00455   2.62446
    R3        2.63938   0.00089   0.00000   0.00192   0.00192   2.64130
    R4        2.62864  -0.00270   0.00000  -0.00571  -0.00571   2.62293
    R5        2.04262  -0.00193   0.00000  -0.00537  -0.00537   2.03725
    R6        2.63667  -0.00259   0.00000  -0.00561  -0.00561   2.63106
    R7        2.04981  -0.00230   0.00000  -0.00647  -0.00647   2.04333
    R8        2.63478  -0.00273   0.00000  -0.00590  -0.00590   2.62888
    R9        2.04910  -0.00224   0.00000  -0.00630  -0.00630   2.04279
   R10        2.62780  -0.00272   0.00000  -0.00577  -0.00577   2.62203
   R11        2.04929  -0.00227   0.00000  -0.00641  -0.00641   2.04288
   R12        2.04792  -0.00195   0.00000  -0.00549  -0.00549   2.04242
   R13        2.48848   0.00218   0.00000   0.00348   0.00348   2.49196
    A1        2.13673  -0.00024   0.00000  -0.00082  -0.00082   2.13591
    A2        2.14590   0.00083   0.00000   0.00326   0.00326   2.14915
    A3        2.00056  -0.00059   0.00000  -0.00244  -0.00244   1.99812
    A4        2.06068  -0.00002   0.00000  -0.00001  -0.00001   2.06067
    A5        2.08486   0.00086   0.00000   0.00531   0.00531   2.09017
    A6        2.13764  -0.00084   0.00000  -0.00530  -0.00530   2.13234
    A7        2.10690   0.00010   0.00000   0.00034   0.00034   2.10724
    A8        2.08226   0.00003   0.00000   0.00031   0.00031   2.08257
    A9        2.09403  -0.00012   0.00000  -0.00065  -0.00065   2.09337
   A10        2.09446   0.00006   0.00000   0.00009   0.00009   2.09456
   A11        2.09403  -0.00002   0.00000  -0.00000  -0.00000   2.09402
   A12        2.09470  -0.00004   0.00000  -0.00009  -0.00009   2.09460
   A13        2.09708   0.00000   0.00000  -0.00012  -0.00012   2.09696
   A14        2.09886  -0.00007   0.00000  -0.00039  -0.00039   2.09847
   A15        2.08725   0.00007   0.00000   0.00050   0.00050   2.08776
   A16        2.07052   0.00010   0.00000   0.00051   0.00051   2.07103
   A17        2.08393   0.00036   0.00000   0.00229   0.00229   2.08622
   A18        2.12873  -0.00046   0.00000  -0.00279  -0.00279   2.12594
   A19        2.01028   0.00306   0.00000   0.01223   0.01223   2.02251
    D1        0.00000   0.00000   0.00000  -0.00000   0.00000   0.00000
    D2        3.14159  -0.00000   0.00000   0.00000   0.00000   3.14159
    D3        3.14159   0.00000   0.00000  -0.00000   0.00000   3.14159
    D4        0.00000   0.00000   0.00000   0.00000   0.00000   0.00000
    D5        0.00000   0.00000   0.00000  -0.00000   0.00000   0.00000
    D6        3.14159  -0.00000   0.00000  -0.00000   0.00000   3.14159
    D7        3.14159  -0.00000   0.00000  -0.00000   0.00000   3.14159
    D8        0.00000   0.00000   0.00000  -0.00000   0.00000   0.00000
    D9        0.00000   0.00000   0.00000   0.00000   0.00000   0.00000
   D10        3.14159  -0.00000   0.00000   0.00000   0.00000   3.14159
   D11        0.00000  -0.00000   0.00000   0.00000   0.00000   0.00000
   D12        3.14159  -0.00000   0.00000   0.00000   0.00000   3.14159
   D13        3.14159   0.00000   0.00000   0.00000   0.00000   3.14159
   D14        0.00000  -0.00000   0.00000  -0.00000   0.00000   0.00000
   D15        0.00000  -0.00000   0.00000  -0.00000   0.00000   0.00000
   D16        3.14159  -0.00000   0.00000  -0.00000   0.00000   3.14159
   D17        3.14159   0.00000   0.00000  -0.00000   0.00000   3.14159
   D18        0.00000  -0.00000   0.00000  -0.00000   0.00000   0.00000
   D19        0.00000   0.00000   0.00000  -0.00000   0.00000   0.00000
   D20        3.14159  -0.00000   0.00000   0.00000   0.00000   3.14159
   D21        3.14159  -0.00000   0.00000  -0.00000   0.00000   3.14159
   D22        0.00000   0.00000   0.00000   0.00000   0.00000   0.00000
   D23        0.00000  -0.00000   0.00000   0.00000   0.00000   0.00000
   D24        3.14159  -0.00000   0.00000   0.00000   0.00000   3.14159
   D25        3.14159  -0.00000   0.00000  -0.00000   0.00000   3.14159
   D26        0.00000  -0.00000   0.00000  -0.00000   0.00000   0.00000
         Item               Value     Threshold  Converged?
 Maximum Force            0.003060     0.000450     NO 
 RMS     Force            0.001169     0.000300     NO 
 Maximum Displacement     0.024445     0.001800     NO 
 RMS     Displacement     0.006338     0.001200     NO 
 Predicted change in Energy=-1.045659D-04
 GradGradGradGradGradGradGradGradGradGradGradGradGradGradGradGradGradGrad

                          Input orientation:                          
 ---------------------------------------------------------------------
 Center     Atomic      Atomic             Coordinates (Angstroms)
 Number     Number       Type             X           Y           Z
 ---------------------------------------------------------------------
      1          6           0        0.449339   -0.222263    0.000000
      2          6           0        0.021309    1.097094    0.000000
      3          6           0       -1.345201    1.340348    0.000000
      4          6           0       -2.255499    0.286857    0.000000
      5          6           0       -1.798890   -1.027215    0.000000
      6          6           0       -0.436799   -1.291628    0.000000
      7          8           0        1.798392   -0.587861    0.000000
      8          8           0        2.664301    0.406695    0.000000
      9          1           0        0.746412    1.894870    0.000000
     10          1           0       -1.701318    2.361308    0.000000
     11          1           0       -3.317171    0.490358    0.000000
     12          1           0       -2.502483   -1.847956    0.000000
     13          1           0       -0.052619   -2.301847    0.000000
 ---------------------------------------------------------------------
                    Distance matrix (angstroms):
                    1          2          3          4          5
     1  C    0.000000
     2  C    1.387051   0.000000
     3  C    2.379522   1.387993   0.000000
     4  C    2.752335   2.416679   1.392295   0.000000
     5  C    2.387987   2.797466   2.410641   1.391143   0.000000
     6  C    1.388806   2.432253   2.784330   2.408170   1.387518
     7  O    1.397715   2.448897   3.687841   4.147187   3.624013
     8  O    2.302530   2.731676   4.116772   4.921259   4.687875
     9  H    2.137874   1.078064   2.163872   3.405463   3.875196
    10  H    3.361571   2.136745   1.081285   2.147199   3.389928
    11  H    3.833330   3.393166   2.147358   1.081000   2.146673
    12  H    3.369885   3.878510   3.391841   2.149053   1.081045
    13  H    2.139306   3.399744   3.864758   3.399128   2.161978
                    6          7          8          9         10
     6  C    0.000000
     7  O    2.343366   0.000000
     8  O    3.535692   1.318689   0.000000
     9  H    3.399082   2.696408   2.427542   0.000000
    10  H    3.865611   4.576633   4.783214   2.491776   0.000000
    11  H    3.387036   5.227957   5.982056   4.299461   2.472132
    12  H    2.139287   4.481669   5.637295   4.956215   4.284830
    13  H    1.080804   2.522694   3.836385   4.272105   4.946031
                   11         12         13
    11  H    0.000000
    12  H    2.476172   0.000000
    13  H    4.295778   2.491556   0.000000
 Stoichiometry    C6H5O2(2)
 Framework group  CS[SG(C6H5O2)]
 Deg. of freedom    23
 Full point group                 CS      NOp   2
 Largest Abelian subgroup         CS      NOp   2
 Largest concise Abelian subgroup C1      NOp   1
                         Standard orientation:                         
 ---------------------------------------------------------------------
 Center     Atomic      Atomic             Coordinates (Angstroms)
 Number     Number       Type             X           Y           Z
 ---------------------------------------------------------------------
      1          6           0        0.000000    0.555865    0.000000
      2          6           0       -1.030287   -0.372801    0.000000
      3          6           0       -0.695380   -1.719783    0.000000
      4          6           0        0.637678   -2.121581    0.000000
      5          6           0        1.651490   -1.168972    0.000000
      6          6           0        1.337705    0.182599    0.000000
      7          8           0       -0.216073    1.936777    0.000000
      8          8           0       -1.477220    2.322065    0.000000
      9          1           0       -2.054348   -0.035875    0.000000
     10          1           0       -1.482501   -2.461146    0.000000
     11          1           0        0.884624   -3.173996    0.000000
     12          1           0        2.687753   -1.476894    0.000000
     13          1           0        2.103578    0.945210    0.000000
 ---------------------------------------------------------------------
 Rotational constants (GHZ):           5.2263717           1.6173882           1.2351503
 Basis read from rwf:  (5D, 7F)
 There are   247 symmetry adapted cartesian basis functions of A'  symmetry.
 There are   108 symmetry adapted cartesian basis functions of A"  symmetry.
 There are   210 symmetry adapted basis functions of A'  symmetry.
 There are   100 symmetry adapted basis functions of A"  symmetry.
   310 basis functions,   498 primitive gaussians,   355 cartesian basis functions
    29 alpha electrons       28 beta electrons
       nuclear repulsion energy       335.3582047535 Hartrees.
 NAtoms=   13 NActive=   13 NUniq=   13 SFac= 1.00D+00 NAtFMM=   60 NAOKFM=F Big=F
 Integral buffers will be    131072 words long.
 Raffenetti 2 integral format.
 Two-electron integral symmetry is turned on.
 One-electron integrals computed using PRISM.
 NBasis=   310 RedAO= T EigKep=  2.25D-05  NBF=   210   100
 NBsUse=   310 1.00D-06 EigRej= -1.00D+00 NBFU=   210   100
 Initial guess from the checkpoint file:  "/wrk/irikura/Gau-16336.chk"
 B after Tr=    -0.000000   -0.000000   -0.000000
         Rot=    0.999998    0.000000   -0.000000    0.002144 Ang=   0.25 deg.
 Initial guess orbital symmetries:
 Alpha Orbitals:
[...]
   A15        2.08770  -0.00001   0.00000  -0.00004  -0.00004   2.08766
   A16        2.07076   0.00001   0.00000   0.00004   0.00004   2.07081
   A17        2.08700   0.00001   0.00000   0.00006   0.00006   2.08705
   A18        2.12543  -0.00001   0.00000  -0.00010  -0.00010   2.12533
   A19        2.01671   0.00001   0.00000  -0.00004  -0.00004   2.01667
    D1        0.00000   0.00000   0.00000  -0.00000   0.00000   0.00000
    D2        3.14159   0.00000   0.00000  -0.00000   0.00000   3.14159
    D3        3.14159   0.00000   0.00000   0.00000   0.00000   3.14159
    D4        0.00000   0.00000   0.00000   0.00000   0.00000   0.00000
    D5        0.00000  -0.00000   0.00000  -0.00000   0.00000   0.00000
    D6        3.14159  -0.00000   0.00000   0.00000   0.00000   3.14159
    D7        3.14159  -0.00000   0.00000  -0.00000   0.00000   3.14159
    D8        0.00000  -0.00000   0.00000  -0.00000   0.00000   0.00000
    D9        0.00000   0.00000   0.00000  -0.00000   0.00000   0.00000
   D10        3.14159   0.00000   0.00000  -0.00000   0.00000   3.14159
   D11        0.00000   0.00000   0.00000   0.00000   0.00000   0.00000
   D12        3.14159   0.00000   0.00000  -0.00000   0.00000   3.14159
   D13        3.14159   0.00000   0.00000  -0.00000   0.00000   3.14159
   D14        0.00000  -0.00000   0.00000  -0.00000   0.00000   0.00000
   D15        0.00000  -0.00000   0.00000   0.00000   0.00000   0.00000
   D16        3.14159  -0.00000   0.00000  -0.00000   0.00000   3.14159
   D17        3.14159  -0.00000   0.00000   0.00000   0.00000   3.14159
   D18        0.00000  -0.00000   0.00000   0.00000   0.00000   0.00000
   D19        0.00000   0.00000   0.00000  -0.00000   0.00000   0.00000
   D20        3.14159   0.00000   0.00000   0.00000   0.00000   3.14159
   D21        3.14159  -0.00000   0.00000  -0.00000   0.00000   3.14159
   D22        0.00000  -0.00000   0.00000   0.00000   0.00000   0.00000
   D23        0.00000   0.00000   0.00000   0.00000   0.00000   0.00000
   D24        3.14159   0.00000   0.00000  -0.00000   0.00000   3.14159
   D25        3.14159   0.00000   0.00000  -0.00000   0.00000   3.14159
   D26        0.00000   0.00000   0.00000  -0.00000   0.00000   0.00000
         Item               Value     Threshold  Converged?
 Maximum Force            0.000070     0.000450     YES
 RMS     Force            0.000014     0.000300     YES
 Maximum Displacement     0.000466     0.001800     YES
 RMS     Displacement     0.000102     0.001200     YES
 Predicted change in Energy=-2.724873D-08
 Optimization completed.
    -- Stationary point found.
                           ----------------------------
                           !   Optimized Parameters   !
                           ! (Angstroms and Degrees)  !
 --------------------------                            --------------------------
 ! Name  Definition              Value          Derivative Info.                !
 --------------------------------------------------------------------------------
 ! R1    R(1,2)                  1.3868         -DE/DX =    0.0                 !
 ! R2    R(1,6)                  1.3889         -DE/DX =    0.0                 !
 ! R3    R(1,7)                  1.3974         -DE/DX =    0.0                 !
 ! R4    R(2,3)                  1.3885         -DE/DX =    0.0                 !
 ! R5    R(2,9)                  1.0783         -DE/DX =    0.0                 !
 ! R6    R(3,4)                  1.3926         -DE/DX =    0.0                 !
 ! R7    R(3,10)                 1.0814         -DE/DX =    0.0                 !
 ! R8    R(4,5)                  1.3915         -DE/DX =    0.0                 !
 ! R9    R(4,11)                 1.0811         -DE/DX =    0.0                 !
 ! R10   R(5,6)                  1.3879         -DE/DX =    0.0                 !
 ! R11   R(5,12)                 1.0811         -DE/DX =    0.0                 !
 ! R12   R(6,13)                 1.0808         -DE/DX =    0.0                 !
 ! R13   R(7,8)                  1.319          -DE/DX =    0.0001              !
 ! A1    A(2,1,6)              122.4033         -DE/DX =    0.0                 !
 ! A2    A(2,1,7)              123.0938         -DE/DX =    0.0                 !
 ! A3    A(6,1,7)              114.503          -DE/DX =    0.0                 !
 ! A4    A(1,2,3)              118.0701         -DE/DX =    0.0                 !
 ! A5    A(1,2,9)              119.8546         -DE/DX =    0.0                 !
 ! A6    A(3,2,9)              122.0753         -DE/DX =    0.0                 !
 ! A7    A(2,3,4)              120.7307         -DE/DX =    0.0                 !
 ! A8    A(2,3,10)             119.3265         -DE/DX =    0.0                 !
 ! A9    A(4,3,10)             119.9429         -DE/DX =    0.0                 !
 ! A10   A(3,4,5)              119.9951         -DE/DX =    0.0                 !
 ! A11   A(3,4,11)             119.9836         -DE/DX =    0.0                 !
 ! A12   A(5,4,11)             120.0213         -DE/DX =    0.0                 !
 ! A13   A(4,5,6)              120.1548         -DE/DX =    0.0                 !
 ! A14   A(4,5,12)             120.2286         -DE/DX =    0.0                 !
 ! A15   A(6,5,12)             119.6166         -DE/DX =    0.0                 !
 ! A16   A(1,6,5)              118.646          -DE/DX =    0.0                 !
 ! A17   A(1,6,13)             119.5761         -DE/DX =    0.0                 !
 ! A18   A(5,6,13)             121.7779         -DE/DX =    0.0                 !
 ! A19   A(1,7,8)              115.5491         -DE/DX =    0.0                 !
 ! D1    D(6,1,2,3)              0.0            -DE/DX =    0.0                 !
 ! D2    D(6,1,2,9)            180.0            -DE/DX =    0.0                 !
 ! D3    D(7,1,2,3)            180.0            -DE/DX =    0.0                 !
 ! D4    D(7,1,2,9)              0.0            -DE/DX =    0.0                 !
 ! D5    D(2,1,6,5)              0.0            -DE/DX =    0.0                 !
 ! D6    D(2,1,6,13)           180.0            -DE/DX =    0.0                 !
 ! D7    D(7,1,6,5)            180.0            -DE/DX =    0.0                 !
 ! D8    D(7,1,6,13)             0.0            -DE/DX =    0.0                 !
 ! D9    D(2,1,7,8)              0.0            -DE/DX =    0.0                 !
 ! D10   D(6,1,7,8)            180.0            -DE/DX =    0.0                 !
 ! D11   D(1,2,3,4)              0.0            -DE/DX =    0.0                 !
 ! D12   D(1,2,3,10)           180.0            -DE/DX =    0.0                 !
 ! D13   D(9,2,3,4)            180.0            -DE/DX =    0.0                 !
 ! D14   D(9,2,3,10)             0.0            -DE/DX =    0.0                 !
 ! D15   D(2,3,4,5)              0.0            -DE/DX =    0.0                 !
 ! D16   D(2,3,4,11)           180.0            -DE/DX =    0.0                 !
 ! D17   D(10,3,4,5)           180.0            -DE/DX =    0.0                 !
 ! D18   D(10,3,4,11)            0.0            -DE/DX =    0.0                 !
 ! D19   D(3,4,5,6)              0.0            -DE/DX =    0.0                 !
 ! D20   D(3,4,5,12)           180.0            -DE/DX =    0.0                 !
 ! D21   D(11,4,5,6)           180.0            -DE/DX =    0.0                 !
 ! D22   D(11,4,5,12)            0.0            -DE/DX =    0.0                 !
 ! D23   D(4,5,6,1)              0.0            -DE/DX =    0.0                 !
 ! D24   D(4,5,6,13)           180.0            -DE/DX =    0.0                 !
 ! D25   D(12,5,6,1)           180.0            -DE/DX =    0.0                 !
 ! D26   D(12,5,6,13)            0.0            -DE/DX =    0.0                 !
 --------------------------------------------------------------------------------
 GradGradGradGradGradGradGradGradGradGradGradGradGradGradGradGradGradGrad


 ----------------------------------------------------------------------

 Electric dipole moment (input orientation):
 (Debye = 10**-18 statcoulomb cm , SI units = C m)
                  (au)            (Debye)         (10**-30 SI)
   Tot        0.126758D+01      0.322186D+01      0.107470D+02
   x         -0.126673D+01     -0.321971D+01     -0.107398D+02
   y         -0.462796D-01     -0.117631D+00     -0.392375D+00
   z          0.000000D+00      0.000000D+00      0.000000D+00

 Dipole polarizability, Alpha (input orientation).
 (esu units = cm**3 , SI units = C**2 m**2 J**-1)
 Alpha(0;0):
               (au)            (10**-24 esu)      (10**-40 SI)
   iso        0.804511D+02      0.119216D+02      0.132646D+02
   aniso      0.653752D+02      0.968761D+01      0.107789D+02
   xx         0.116619D+03      0.172812D+02      0.192279D+02
   yx         0.518422D+01      0.768222D+00      0.854762D+00
   yy         0.827793D+02      0.122666D+02      0.136485D+02
   zx         0.000000D+00      0.000000D+00      0.000000D+00
   zy         0.000000D+00      0.000000D+00      0.000000D+00
   zz         0.419548D+02      0.621706D+01      0.691741D+01

 ----------------------------------------------------------------------

 Dipole orientation:
     6          0.01653119         -0.45247886         -0.83412845
     6         -0.07551421          2.06691627         -0.11852344
     6         -0.09579704          2.62208233          2.44583196
     6         -0.02547531          0.69729055          4.23905090
     6          0.06631336         -1.81507777          3.46799976
     6          0.08802340         -2.40930816          0.91358437
     8          0.04511751         -1.23492136         -3.35611981
     8         -0.02165727          0.59278588         -5.04950377
     1         -0.12875835          3.52427360         -1.54159138
     1         -0.16710549          4.57388194          3.04679414
     1         -0.04221704          1.15553206          6.22989596
     1          0.12111358         -3.31502694          4.85404334
     1          0.15866932         -4.34297353          0.25962557

 Electric dipole moment (dipole orientation):
 (Debye = 10**-18 statcoulomb cm , SI units = C m)
                  (au)            (Debye)         (10**-30 SI)
   Tot        0.126758D+01      0.322186D+01      0.107470D+02
   x          0.000000D+00      0.000000D+00      0.000000D+00
   y          0.000000D+00      0.000000D+00      0.000000D+00
   z          0.126758D+01      0.322186D+01      0.107470D+02

 Dipole polarizability, Alpha (dipole orientation).
 (esu units = cm**3 , SI units = C**2 m**2 J**-1)
 Alpha(0;0):
               (au)            (10**-24 esu)      (10**-40 SI)
   iso        0.804511D+02      0.119216D+02      0.132646D+02
   aniso      0.653752D+02      0.968761D+01      0.107789D+02
   xx         0.420088D+02      0.622506D+01      0.692631D+01
   yx        -0.147736D+01     -0.218923D+00     -0.243585D+00
   yy         0.823921D+02      0.122092D+02      0.135846D+02
   zx         0.143694D+00      0.212933D-01      0.236919D-01
   zy        -0.393308D+01     -0.582823D+00     -0.648478D+00
   zz         0.116953D+03      0.173306D+02      0.192829D+02

 ----------------------------------------------------------------------
 1\1\GINC-GAMBA\Freq\UB3LYP\Gen\C6H5O2(2)\IRIKURA\16-Jun-2022\0\\#N Geo
 m=AllCheck Guess=TCheck SCRF=Check GenChk UB3LYP/ChkBas Freq\\phenylpe
 roxyl, B3LYP/pcseg-2\\0,2\C,0.4498554028,-0.2233257659,0.\C,0.02271769
 07,1.0960549118,0.\C,-1.3441092184,1.3402916383,0.\C,-2.2551944841,0.2
 870898954,0.\C,-1.7988713598,-1.0275011129,0.\C,-0.4365457262,-1.29260
 18317,0.\O,1.7986731844,-0.5886504958,0.\O,2.6588402468,0.4112474695,0
 .\H,0.747095146,1.8947495167,0.\H,-1.6996474869,2.3615286539,0.\H,-3.3
 168612588,0.491116835,0.\H,-2.5028459887,-1.8480190132,0.\H,-0.0533321
 479,-2.3032187012,0.\\Version=ES64L-G16RevB.01\State=2-A"\HF=-382.1105
 526\S2=0.757206\S2-1=0.\S2A=0.750043\RMSD=3.613e-09\RMSF=2.570e-05\Zer
 oPoint=0.0958552\Thermal=0.1021613\Dipole=-1.2667306,-0.0462796,0.\Dip
 oleDeriv=0.2750253,-0.1005052,0.,0.0301375,0.148425,0.,0.,0.,0.0985278
 ,-0.0190661,0.0424712,0.,-0.0660954,-0.1057901,0.,0.,0.,-0.0958902,-0.
 1379226,-0.0537652,0.,-0.1143537,0.1182169,0.,0.,0.,-0.1288191,0.08526
 18,-0.0351946,0.,0.0463043,-0.062348,0.,0.,0.,-0.1233937,0.0423548,0.0
 661756,0.,0.1357337,0.0583382,0.,0.,0.,-0.1339497,-0.0201755,-0.038257
 1,0.,0.0288161,0.022804,0.,0.,0.,-0.1104376,0.058365,-0.0659635,0.,-0.
 069049,-0.2331958,0.,0.,0.,-0.0542921,-0.3947701,0.1856109,0.,-0.02087
 42,0.003092,0.,0.,0.,-0.1606214,0.0706461,-0.0407877,0.,-0.014386,0.05
 91951,0.,0.,0.,0.1479859,0.0445766,0.0411242,0.,0.0526774,-0.05812,0.,
 0.,0.,0.1334668,-0.0740628,0.0275226,0.,0.030958,0.065535,0.,0.,0.,0.1
 401369,0.0036508,-0.0716742,0.,-0.0764518,-0.013415,0.,0.,0.,0.1354733
 ,0.0661168,0.0432431,0.,0.036583,-0.0027372,0.,0.,0.,0.1518131\Polar=1
 16.6193374,5.1842163,82.779256,0.,0.,41.9548083\Quadrupole=-2.5497615,
 4.1849155,-1.635154,-0.0523372,0.,0.\PG=CS [SG(C6H5O2)]\NImag=0\\0.546
 43597,0.04224650,0.72895357,0.,0.,0.13943150,-0.12519575,0.00398158,0.
 ,0.71213670,0.05870201,-0.30525005,0.,0.05050612,0.70076675,0.,0.,-0.0
 6637427,0.,0.,0.13120688,-0.01587638,0.09131632,0.,-0.32955896,0.00231
 983,0.,0.66335567,0.03673451,0.01399861,0.,0.06842393,-0.13571141,0.,-
 0.02954458,0.72756333,0.,0.,0.00291889,0.,0.,-0.06082404,0.,0.,0.13736
 191,0.00137527,-0.01417490,0.,-0.04656424,-0.01390675,0.,-0.21135335,-
 0.12731937,0.,0.73765463,-0.01223569,-0.06780249,0.,-0.05920123,0.0507
 6254,0.,-0.06202050,-0.24141564,0.,-0.01886020,0.65186033,0.,0.,-0.006
 01334,0.,0.,0.00687267,0.,0.,-0.06377841,0.,0.,0.13499245,-0.05176867,
 -0.06115031,0.,-0.03547211,0.03146937,0.,0.05984664,0.00003877,0.,-0.1
 5076061,0.02666526,0.,0.69307678,-0.00938741,0.05152253,0.,0.03157600,
 -0.02767091,0.,-0.04547109,-0.05521896,0.,0.09203801,-0.30464410,0.,0.
 04576098,0.70064400,0.,0.,0.00452143,0.,0.,-0.00376057,0.,0.,0.0069411
 6,0.,0.,-0.06346581,0.,0.,0.13602835,-0.17240024,-0.06419469,0.,0.0526
 5062,-0.03806900,0.,-0.05587951,-0.02063998,0.,-0.00898245,0.08349165,
 0.,-0.32839585,0.00458144,0.,0.68353480,-0.11906422,-0.26122393,0.,-0.
 00017385,-0.04647292,0.,-0.01981096,-0.00817081,0.,0.03730962,0.011613
 20,0.,0.07007215,-0.13645260,0.,-0.03645662,0.72959719,0.,0.,-0.065882
 89,0.,0.,0.00877787,0.,0.,-0.00380797,0.,0.,0.00692886,0.,0.,-0.060912
 34,0.,0.,0.13105992,-0.13378940,0.05804643,0.,-0.04096505,0.02912213,0
 .,0.01215335,0.00505830,0.,-0.00589721,-0.00094676,0.,0.00634819,-0.00
 686445,0.,-0.05838543,-0.01096464,0.,0.39225192,0.04129329,-0.13955979
 ,0.,0.04491846,-0.00357227,0.,-0.00389090,-0.00898731,0.,0.00049918,-0
 .00023162,0.,-0.00396334,-0.00408176,0.,-0.03067479,0.01566294,0.,0.09
 458969,0.40681877,0.,0.,-0.03102887,0.,0.,0.00630486,0.,0.,0.00692183,
 0.,0.,-0.00053304,0.,0.,0.00512443,0.,0.,0.00285314,0.,0.,0.02000141,-
 0.06502307,-0.04491649,0.,0.00662176,-0.00109414,0.,-0.00272434,-0.003
 97545,0.,0.00053106,0.00046818,0.,-0.00194095,-0.00186280,0.,-0.002552
 56,0.00908312,0.,-0.16970771,-0.14011502,0.,0.23806830,-0.02942625,0.0
 1543385,0.,0.00849197,-0.00526476,0.,-0.00271228,0.00076004,0.,0.00141
 741,0.00206994,0.,0.00133504,-0.00094093,0.,0.00221435,0.00287142,0.,-
 0.16833896,-0.26845510,0.,0.18328590,0.25134702,0.,0.,-0.00274693,0.,0
 .,0.00025158,0.,0.,-0.00014903,0.,0.,-0.00041258,0.,0.,0.00083145,0.,0
 .,0.00233171,0.,0.,-0.00156705,0.,0.,0.00217685,0.01351542,0.00539501,
 0.,-0.18286413,-0.14364631,0.,-0.01416801,-0.02307821,0.,-0.00429451,0
 .00240592,0.,-0.00043439,0.00091436,0.,-0.00051190,0.00257675,0.,-0.00
 210929,-0.00320616,0.,-0.00283532,0.00335558,0.,0.19263034,-0.02109518
 ,-0.01818730,0.,-0.14268028,-0.22090816,0.,0.00603930,0.01019142,0.,0.
 00217937,0.00073470,0.,0.00092198,-0.00007880,0.,0.00323284,-0.0043963
 0,0.,-0.00234394,0.00078060,0.,-0.00059692,0.00184824,0.,0.15546148,0.
 22974013,0.,0.,0.00521022,0.,0.,-0.03716956,0.,0.,0.00359166,0.,0.,0.0
 0759933,0.,0.,-0.00114600,0.,0.,0.00518794,0.,0.,-0.00365305,0.,0.,-0.
 00042730,0.,0.,0.02561362,-0.00524482,-0.00014626,0.,-0.00700064,0.030
 54348,0.,-0.08938745,0.08601777,0.,0.01114498,-0.02076445,0.,-0.002233
 31,-0.00342747,0.,-0.00105276,-0.00044330,0.,-0.00080835,0.00215751,0.
 ,0.00035101,-0.00020322,0.,0.00132284,-0.00046843,0.,0.09160601,0.0005
 9476,0.00184662,0.,0.00031177,-0.00128970,0.,0.08612405,-0.30782304,0.
 ,0.01013507,-0.01778432,0.,-0.00408484,-0.00188218,0.,-0.00064187,0.00
 052138,0.,-0.00018441,-0.00016451,0.,0.00004216,0.00003863,0.,0.000206
 30,0.00072045,0.,-0.09289247,0.32581159,0.,0.,0.00798730,0.,0.,0.00381
 902,0.,0.,-0.03816914,0.,0.,0.00363182,0.,0.,0.00696621,0.,0.,-0.00122
 055,0.,0.,-0.00043072,0.,0.,0.00035654,0.,0.,-0.00451161,0.,0.,0.02616
 276,0.00075769,-0.00052753,0.,-0.00067386,-0.00366666,0.,-0.01567118,0
 .00618525,0.,-0.32835159,0.05164517,0.,-0.00588262,-0.00030729,0.,0.00
 130270,0.00184314,0.,-0.00005730,0.00002515,0.,-0.00014915,0.00007762,
 0.,-0.00063083,0.00042030,0.,0.00087521,-0.00020386,0.,0.34807349,-0.0
 0042287,-0.00173522,0.,-0.00317082,-0.00323651,0.,-0.02481888,0.008788
 64,0.,0.05164913,-0.06972000,0.,0.03061617,-0.00100615,0.,0.00142906,-
 0.00522348,0.,-0.00005876,0.00017941,0.,-0.00003458,0.00018684,0.,-0.0
 0103120,0.00032244,0.,0.00062297,0.00095892,0.,-0.05563137,0.06947406,
 0.,0.,-0.00021747,0.,0.,0.00684124,0.,0.,0.00311781,0.,0.,-0.03671504,
 0.,0.,0.00317908,0.,0.,0.00698989,0.,0.,-0.00109048,0.,0.,0.00002130,0
 .,0.,0.00009337,0.,0.,-0.00391247,0.,0.,0.02551583,-0.00401608,0.00286
 462,0.,-0.00048241,0.00079267,0.,0.00038718,0.00255247,0.,0.01094688,0
 .00932806,0.,-0.17766794,-0.13751441,0.,-0.01646064,-0.02485822,0.,-0.
 00053428,-0.00146229,0.,-0.00076660,-0.00011491,0.,0.00001388,-0.00006
 170,0.,0.00035081,0.00053735,0.,0.00073253,-0.00054776,0.,0.18623002,0
 .00178214,0.00104294,0.,0.00098972,-0.00010553,0.,0.00319549,-0.004483
 65,0.,-0.02144556,-0.01730165,0.,-0.13782291,-0.22029899,0.,0.00579667
 ,0.00843518,0.,0.00037444,0.00034902,0.,0.00021337,0.00004147,0.,-0.00
 006840,0.00001974,0.,-0.00103946,-0.00091553,0.,0.00028771,0.00110434,
 0.,0.14822170,0.23140789,0.,0.,0.00761927,0.,0.,-0.00116005,0.,0.,0.00
 704999,0.,0.,0.00351166,0.,0.,-0.03767087,0.,0.,0.00335759,0.,0.,0.000
 48225,0.,0.,-0.00025066,0.,0.,-0.00077195,0.,0.,0.00006189,0.,0.,-0.00
 396509,0.,0.,0.02605724,0.01123007,-0.01874028,0.,-0.00263193,-0.00307
 275,0.,-0.00112366,-0.00045340,0.,-0.00544886,0.00002459,0.,-0.0047151
 8,0.02996414,0.,-0.09286676,0.09088704,0.,0.00150057,-0.00017078,0.,0.
 00012758,0.00061775,0.,0.00036589,-0.00100881,0.,0.00007646,0.00005598
 ,0.,-0.00032507,0.00139892,0.,0.00126666,-0.00048491,0.,0.09254424,0.0
 1027840,-0.01903934,0.,-0.00397336,-0.00204708,0.,-0.00072581,0.000508
 78,0.,0.00047901,0.00185910,0.,0.00014169,0.00010887,0.,0.08993094,-0.
 30676128,0.,0.00251093,0.00126161,0.,-0.00049733,0.00006332,0.,0.00071
 488,-0.00078716,0.,0.00004332,-0.00003830,0.,-0.00014763,-0.00009330,0
 .,0.00026242,0.00070477,0.,-0.09901748,0.32426002,0.,0.,0.00457518,0.,
 0.,0.00521438,0.,0.,-0.00117466,0.,0.,0.00738145,0.,0.,0.00336348,0.,0
 .,-0.03566316,0.,0.,-0.00338470,0.,0.,-0.00041588,0.,0.,0.00038334,0.,
 0.,-0.00074104,0.,0.,0.00014203,0.,0.,-0.00432127,0.,0.,0.02464085\\0.
 00003407,-0.00004615,0.,-0.00006122,0.00006256,0.,0.00003875,0.0000161
 1,0.,-0.00001504,-0.00002162,0.,-0.00002251,0.00000676,0.,0.00001004,-
 0.00001546,0.,0.00002999,0.00006116,0.,-0.00004697,-0.00005337,0.,0.00
 002797,-0.00002382,0.,-0.00000545,-0.00000956,0.,0.00000569,0.00000191
 ,0.,-0.00000056,0.00001099,0.,0.00000522,0.00001049,0.\\\@


 LIFE IS SO UNCERTAIN - EAT DESSERT FIRST.
 Job cpu time:       0 days  1 hours 32 minutes  7.6 seconds.
 Elapsed time:       0 days  0 hours  7 minutes 40.7 seconds.
 File lengths (MBytes):  RWF=    197 Int=      0 D2E=      0 Chk=     12 Scr=      1
 Normal termination of Gaussian 16 at Thu Jun 16 08:26:40 2022.
