 Entering Gaussian System, Link 0=g16
 AtFile(1): pcseg2.gbs
            -H     0
            S   4   1.00
                  0.754732D+02           0.427821D-02
                  0.113575D+02           0.328672D-01
                  0.260081D+01           0.159578D+00
                  0.735503D+00           0.500000D+00
            S   1   1.00
                  0.231761D+00           1.0000000
            S   1   1.00
                  0.741675D-01           1.0000000
            P   1   1.00
                  0.160000D+01           1.0000000
            P   1   1.00
                  0.450000D+00           1.0000000
            D   1   1.00
                  0.125000D+01           1.0000000
            ****
            -C     0
            S   7   1.00
                  0.731999D+04           0.695369D-03
                  0.109818D+04           0.537138D-02
                  0.250014D+03           0.274734D-01
                  0.707586D+02           0.105078D+00
                  0.228595D+02           0.291262D+00
                  0.803936D+01           0.500000D+00
                  0.289309D+01           0.362224D+00
            S   2   1.00
                  0.521640D+01          -0.957844D-01
                  0.556124D+00           0.500000D+00
            S   1   1.00
                  0.228813D+00           1.0000000
            S   1   1.00
                  0.936338D-01           1.0000000
            P   4   1.00
                  0.339855D+02           0.818395D-02
                  0.772957D+01           0.586921D-01
                  0.224954D+01           0.222514D+00
                  0.767681D+00           0.500000D+00
            P   1   1.00
                  0.263283D+00           1.0000000
            P   1   1.00
                  0.848744D-01           1.0000000
            D   1   1.00
                  0.140000D+01           1.0000000
            D   1   1.00
                  0.450000D+00           1.0000000
            F   1   1.00
                  0.950000D+00           1.0000000
            ****
            -O     0
            S   7   1.00
                  0.135887D+05           0.665492D-03
                  0.203847D+04           0.514222D-02
                  0.464041D+03           0.263472D-01
                  0.131339D+03           0.101500D+00
                  0.425340D+02           0.285877D+00
                  0.150429D+02           0.500000D+00
                  0.546616D+01           0.368211D+00
            S   2   1.00
                  0.100915D+02          -0.100084D+00
                  0.110429D+01           0.500000D+00
            S   1   1.00
                  0.448082D+00           1.0000000
            S   1   1.00
                  0.175325D+00           1.0000000
            P   4   1.00
                  0.608220D+02           0.908253D-02
                  0.140332D+02           0.645878D-01
                  0.418244D+01           0.241502D+00
                  0.142490D+01           0.500000D+00
            P   1   1.00
                  0.478741D+00           1.0000000
            P   1   1.00
                  0.146257D+00           1.0000000
            D   1   1.00
                  0.220000D+01           1.0000000
            D   1   1.00
                  0.650000D+00           1.0000000
            F   1   1.00
                  0.110000D+01           1.0000000
            ****
            -N     0
            S   7   1.00
                  0.101643D+05           0.682757D-03
                  0.152481D+04           0.527488D-02
                  0.347119D+03           0.270037D-01
                  0.982389D+02           0.103673D+00
                  0.317799D+02           0.289575D+00
                  0.112240D+02           0.500000D+00
                  0.406611D+01           0.364621D+00
            S   2   1.00
                  0.747898D+01          -0.975681D-01
                  0.805040D+00           0.500000D+00
            S   1   1.00
                  0.324626D+00           1.0000000
            S   1   1.00
                  0.128132D+00           1.0000000
            P   4   1.00
                  0.482704D+02           0.829547D-02
                  0.110815D+02           0.596223D-01
                  0.326643D+01           0.227889D+00
                  0.111680D+01           0.500000D+00
            P   1   1.00
                  0.382049D+00           1.0000000
            P   1   1.00
                  0.121222D+00           1.0000000
            D   1   1.00
                  0.180000D+01           1.0000000
            D   1   1.00
                  0.550000D+00           1.0000000
            F   1   1.00
                  0.102000D+01           1.0000000
            ****
            -F     0
            S   7   1.00
                  0.174507D+05           0.655972D-03
                  0.261768D+04           0.506944D-02
                  0.595857D+03           0.259899D-01
                  0.168651D+03           0.100353D+00
                  0.546654D+02           0.284095D+00
                  0.193717D+02           0.500000D+00
                  0.706202D+01           0.370721D+00
            S   2   1.00
                  0.131197D+02          -0.101997D+00
                  0.145046D+01           0.500000D+00
            S   1   1.00
                  0.588255D+00           1.0000000
            S   1   1.00
                  0.227960D+00           1.0000000
            P   4   1.00
                  0.779407D+02           0.931135D-02
                  0.180425D+02           0.663964D-01
                  0.542342D+01           0.246386D+00
                  0.184876D+01           0.500000D+00
            P   1   1.00
                  0.617455D+00           1.0000000
            P   1   1.00
                  0.185496D+00           1.0000000
            D   1   1.00
                  0.280000D+01           1.0000000
            D   1   1.00
                  0.800000D+00           1.0000000
            F   1   1.00
                  0.120000D+01           1.0000000
            ****
            -Cl     0
            S   8   1.00
                  0.154272D+06           0.222473D-03
                  0.231232D+05           0.172590D-02
                  0.526257D+04           0.899286D-02
                  0.148995D+04           0.367724D-01
                  0.485417D+03           0.121446D+00
                  0.174634D+03           0.304148D+00
                  0.672393D+02           0.500000D+00
                  0.265780D+02           0.360252D+00
            S   3   1.00
                  0.131826D+03          -0.531330D-01
                  0.400703D+02          -0.233346D+00
                  0.789448D+01           0.500000D+00
            S   2   1.00
                  0.427711D+01           0.500000D+00
                  0.196233D+01           0.370517D+00
            S   1   1.00
                  0.520793D+00           1.0000000
            S   1   1.00
                  0.181633D+00           1.0000000
            P   7   1.00
                  0.124440D+04           0.988206D-03
                  0.295109D+03           0.829674D-02
                  0.947224D+02           0.430906D-01
                  0.352588D+02           0.148443D+00
                  0.144211D+02           0.344744D+00
                  0.610371D+01           0.500000D+00
                  0.258886D+01           0.348278D+00
            P   2   1.00
                  0.109447D+02          -0.196768D-01
                  0.104413D+01           0.500000D+00
            P   1   1.00
                  0.376184D+00           1.0000000
            P   1   1.00
                  0.120613D+00           1.0000000
            D   1   1.00
                  0.231000D+01           1.0000000
            D   1   1.00
                  0.520000D+00           1.0000000
            F   1   1.00
                  0.720000D+00           1.0000000
            ****
            -S     0
            S   8   1.00
                  0.134700D+06           0.226231D-03
                  0.201904D+05           0.175488D-02
                  0.459528D+04           0.914190D-02
                  0.130109D+04           0.373551D-01
                  0.423902D+03           0.123121D+00
                  0.152485D+03           0.306801D+00
                  0.586925D+02           0.500000D+00
                  0.231461D+02           0.354358D+00
            S   3   1.00
                  0.116327D+03          -0.491772D-01
                  0.352841D+02          -0.215962D+00
                  0.677831D+01           0.500000D+00
            S   2   1.00
                  0.360404D+01           0.500000D+00
                  0.164871D+01           0.366278D+00
            S   1   1.00
                  0.421821D+00           1.0000000
            S   1   1.00
                  0.147554D+00           1.0000000
            P   7   1.00
                  0.104863D+04           0.105273D-02
                  0.248717D+03           0.879338D-02
                  0.797887D+02           0.453358D-01
                  0.296023D+02           0.154476D+00
                  0.120627D+02           0.352366D+00
                  0.507628D+01           0.500000D+00
                  0.213375D+01           0.346429D+00
            P   2   1.00
                  0.928958D+01          -0.185932D-01
                  0.837819D+00           0.500000D+00
            P   1   1.00
                  0.301495D+00           1.0000000
            P   1   1.00
                  0.974740D-01           1.0000000
            D   1   1.00
                  0.210000D+01           1.0000000
            D   1   1.00
                  0.480000D+00           1.0000000
            F   1   1.00
                  0.660000D+00           1.0000000
            ****
            -Br     0
            S    10   1.00
                  0.233625D+07           0.532336D-04
                  0.349961D+06           0.413715D-03
                  0.796444D+05           0.217123D-02
                  0.225555D+05           0.910109D-02
                  0.735546D+04           0.323789D-01
                  0.265352D+04           0.988755D-01
                  0.103517D+04           0.248138D+00
                  0.422205D+03           0.474328D+00
                  0.180035D+03           0.500000D+00
                  0.793308D+02           0.187769D+00
            S    4   1.00
                  0.620834D+03          -0.226511D-01
                  0.190829D+03          -0.109497D+00
                  0.312505D+02           0.500000D+00
                  0.135270D+02           0.492812D+00
            S    2   1.00
                  0.216097D+02          -0.165418D+00
                  0.372566D+01           0.500000D+00
            S    1   1.00
                  0.169770D+01           1.0000000
            S    1   1.00
                  0.489332D+00           1.0000000
            S    1   1.00
                  0.175712D+00           1.0000000
            P    8   1.00
                  0.960829D+04           0.478974D-03
                  0.227618D+04           0.417853D-02
                  0.736723D+03           0.229315D-01
                  0.281579D+03           0.892653D-01
                  0.118395D+03           0.255288D+00
                  0.527481D+02           0.479074D+00
                  0.245098D+02           0.500000D+00
                  0.112009D+02           0.200944D+00
            P    4   1.00
                  0.587849D+02          -0.189674D-01
                  0.918962D+01           0.264104D+00
                  0.413895D+01           0.500000D+00
                  0.184225D+01           0.319316D+00
            P    1   1.00
                  0.713862D+00           1.0000000
            P    1   1.00
                  0.274232D+00           1.0000000
            P    1   1.00
                  0.944411D-01           1.0000000
            D    7   1.00
                  0.398470D+03           0.204066D-02
                  0.118967D+03           0.175171D-01
                  0.450197D+02           0.829708D-01
                  0.190320D+02           0.236284D+00
                  0.855686D+01           0.428468D+00
                  0.382950D+01           0.500000D+00
                  0.166291D+01           0.349360D+00
            D    1   1.00
                  0.672953D+00           1.0000000
            D    1   1.00
                  0.252000D+00           1.0000000
            F    1   1.00
                  0.530000D+00           1.0000000
            ****
            -Si     0
            S    8   1.00
                  0.996133D+05           0.235546D-03
                  0.149311D+05           0.182707D-02
                  0.339820D+04           0.951425D-02
                  0.962140D+03           0.388172D-01
                  0.313430D+03           0.127328D+00
                  0.112683D+03           0.313522D+00
                  0.433372D+02           0.500000D+00
                  0.170029D+02           0.340347D+00
            S    3   1.00
                  0.884208D+02          -0.404451D-01
                  0.266756D+02          -0.178059D+00
                  0.479640D+01           0.500000D+00
            S    2   1.00
                  0.239385D+01           0.500000D+00
                  0.108333D+01           0.338016D+00
            S    1   1.00
                  0.252420D+00           1.0000000
            S    1   1.00
                  0.891210D-01           1.0000000
            P    7   1.00
                  0.709901D+03           0.123028D-02
                  0.168426D+03           0.101366D-01
                  0.539946D+02           0.511840D-01
                  0.198646D+02           0.169967D+00
                  0.801369D+01           0.370717D+00
                  0.331870D+01           0.500000D+00
                  0.136112D+01           0.344128D+00
            P    2   1.00
                  0.622158D+01          -0.166609D-01
                  0.503049D+00           0.500000D+00
            P    1   1.00
                  0.179848D+00           1.0000000
            P    1   1.00
                  0.591912D-01           1.0000000
            D    1   1.00
                  0.168000D+01           1.0000000
            D    1   1.00
                  0.380000D+00           1.0000000
            F    1   1.00
                  0.540000D+00           1.0000000
            ****
            -P     0
            S    8   1.00
                  0.116416D+06           0.230715D-03
                  0.174500D+05           0.178960D-02
                  0.397149D+04           0.932116D-02
                  0.112447D+04           0.380591D-01
                  0.366347D+03           0.125148D+00
                  0.131757D+03           0.310022D+00
                  0.506988D+02           0.500000D+00
                  0.199436D+02           0.347528D+00
            S    3   1.00
                  0.101878D+03          -0.446755D-01
                  0.308249D+02          -0.196376D+00
                  0.573688D+01           0.500000D+00
            S    2   1.00
                  0.296868D+01           0.500000D+00
                  0.135315D+01           0.355098D+00
            S    1   1.00
                  0.332196D+00           1.0000000
            S    1   1.00
                  0.116229D+00           1.0000000
            P    7   1.00
                  0.873928D+03           0.112375D-02
                  0.207298D+03           0.933330D-02
                  0.664628D+02           0.477213D-01
                  0.245665D+02           0.160733D+00
                  0.996820D+01           0.359760D+00
                  0.416536D+01           0.500000D+00
                  0.173022D+01           0.346593D+00
            P    2   1.00
                  0.772530D+01          -0.175718D-01
                  0.657252D+00           0.500000D+00
            P    1   1.00
                  0.239903D+00           1.0000000
            P    1   1.00
                  0.800988D-01           1.0000000
            D    1   1.00
                  0.189000D+01           1.0000000
            D    1   1.00
                  0.430000D+00           1.0000000
            F    1   1.00
                  0.600000D+00           1.0000000
            ****
            
 Initial command:
 /usr/local/apps/g16_b01_avx/g16/l1.exe "/wrk/irikura/Gau-27739.inp" -scrdir="/wrk/irikura/"
 Entering Link 1 = /usr/local/apps/g16_b01_avx/g16/l1.exe PID=     27741.
  
 Copyright (c) 1988-2017, Gaussian, Inc.  All Rights Reserved.
  
 This is part of the Gaussian(R) 16 program.  It is based on
 the Gaussian(R) 09 system (copyright 2009, Gaussian, Inc.),
 the Gaussian(R) 03 system (copyright 2003, Gaussian, Inc.),
 the Gaussian(R) 98 system (copyright 1998, Gaussian, Inc.),
 the Gaussian(R) 94 system (copyright 1995, Gaussian, Inc.),
 the Gaussian 92(TM) system (copyright 1992, Gaussian, Inc.),
 the Gaussian 90(TM) system (copyright 1990, Gaussian, Inc.),
 the Gaussian 88(TM) system (copyright 1988, Gaussian, Inc.),
 the Gaussian 86(TM) system (copyright 1986, Carnegie Mellon
 University), and the Gaussian 82(TM) system (copyright 1983,
 Carnegie Mellon University). Gaussian is a federally registered
 trademark of Gaussian, Inc.
  
 This software contains proprietary and confidential information,
 including trade secrets, belonging to Gaussian, Inc.
  
 This software is provided under written license and may be
 used, copied, transmitted, or stored only in accord with that
 written license.
  
 The following legend is applicable only to US Government
 contracts under FAR:
  
                    RESTRICTED RIGHTS LEGEND
  
 Use, reproduction and disclosure by the US Government is
 subject to restrictions as set forth in subparagraphs (a)
 and (c) of the Commercial Computer Software - Restricted
 Rights clause in FAR 52.227-19.
  
 Gaussian, Inc.
 340 Quinnipiac St., Bldg. 40, Wallingford CT 06492
  
  
 ---------------------------------------------------------------
 Warning -- This program may not be used in any manner that
 competes with the business of Gaussian, Inc. or will provide
 assistance to any competitor of Gaussian, Inc.  The licensee
 of this program is prohibited from giving any competitor of
 Gaussian, Inc. access to this program.  By using this program,
 the user acknowledges that Gaussian, Inc. is engaged in the
 business of creating and licensing software in the field of
 computational chemistry and represents and warrants to the
 licensee that it is not a competitor of Gaussian, Inc. and that
 it will not use this program in any manner prohibited above.
 ---------------------------------------------------------------
  

 Cite this work as:
 Gaussian 16, Revision B.01,
 M. J. Frisch, G. W. Trucks, H. B. Schlegel, G. E. Scuseria, 
 M. A. Robb, J. R. Cheeseman, G. Scalmani, V. Barone, 
 G. A. Petersson, H. Nakatsuji, X. Li, M. Caricato, A. V. Marenich, 
 J. Bloino, B. G. Janesko, R. Gomperts, B. Mennucci, H. P. Hratchian, 
 J. V. Ortiz, A. F. Izmaylov, J. L. Sonnenberg, D. Williams-Young, 
 F. Ding, F. Lipparini, F. Egidi, J. Goings, B. Peng, A. Petrone, 
 T. Henderson, D. Ranasinghe, V. G. Zakrzewski, J. Gao, N. Rega, 
 G. Zheng, W. Liang, M. Hada, M. Ehara, K. Toyota, R. Fukuda, 
 J. Hasegawa, M. Ishida, T. Nakajima, Y. Honda, O. Kitao, H. Nakai, 
 T. Vreven, K. Throssell, J. A. Montgomery, Jr., J. E. Peralta, 
 F. Ogliaro, M. J. Bearpark, J. J. Heyd, E. N. Brothers, K. N. Kudin, 
 V. N. Staroverov, T. A. Keith, R. Kobayashi, J. Normand, 
 K. Raghavachari, A. P. Rendell, J. C. Burant, S. S. Iyengar, 
 J. Tomasi, M. Cossi, J. M. Millam, M. Klene, C. Adamo, R. Cammi, 
 J. W. Ochterski, R. L. Martin, K. Morokuma, O. Farkas, 
 J. B. Foresman, and D. J. Fox, Gaussian, Inc., Wallingford CT, 2016.
 
 ******************************************
 Gaussian 16:  ES64L-G16RevB.01 20-Dec-2017
                17-Jun-2022 
 ******************************************
 %mem=1000mw
 %nprocs=12
 Will use up to   12 processors via shared memory.
 --------------------
 # b3lyp/gen opt freq
 --------------------
 1/18=20,19=15,26=3,38=1/1,3;
 2/9=110,12=2,17=6,18=5,40=1/2;
 3/5=7,11=2,25=1,30=1,71=1,74=-5/1,2,3;
 4//1;
 5/5=2,38=5/2;
 6/7=2,8=2,9=2,10=2,28=1/1;
 7//1,2,3,16;
 1/18=20,19=15,26=3/3(2);
 2/9=110/2;
 99//99;
 2/9=110/2;
 3/5=7,6=1,11=2,25=1,30=1,71=1,74=-5,82=7/1,2,3;
 4/5=5,16=3,69=1/1;
 5/5=2,38=5/2;
 7//1,2,3,16;
 1/18=20,19=15,26=3/3(-5);
 2/9=110/2;
 6/7=2,8=2,9=2,10=2,19=2,28=1/1;
 99/9=1/99;
 -----------------------------------
 phenyl hydroperoxide, B3LYP/pcseg-2
 -----------------------------------
 Symbolic Z-matrix:
 Charge =  0 Multiplicity = 1
 C                     0.43286  -0.25455  -0.00102 
 C                     0.02147   1.07384  -0.00063 
 C                    -1.34516   1.35267   0.00208 
 C                    -2.28643   0.32875   0.00447 
 C                    -1.85257  -0.99713   0.00108 
 C                    -0.49659  -1.29732  -0.00346 
 O                     1.74649  -0.66998   0.00413 
 O                     2.64971   0.44495  -0.05833 
 H                     0.75717   1.86469  -0.01107 
 H                    -1.66904   2.38843   0.00067 
 H                    -3.34605   0.55781   0.0063 
 H                    -2.57412  -1.80749   0.00038 
 H                    -0.14247  -2.32176  -0.0086 
 H                     3.00589   0.43363   0.84257 
 

 GradGradGradGradGradGradGradGradGradGradGradGradGradGradGradGradGradGrad
 Berny optimization.
 Initialization pass.
                           ----------------------------
                           !    Initial Parameters    !
                           ! (Angstroms and Degrees)  !
 --------------------------                            --------------------------
 ! Name  Definition              Value          Derivative Info.                !
 --------------------------------------------------------------------------------
 ! R1    R(1,2)                  1.3906         estimate D2E/DX2                !
 ! R2    R(1,6)                  1.3969         estimate D2E/DX2                !
 ! R3    R(1,7)                  1.3778         estimate D2E/DX2                !
 ! R4    R(2,3)                  1.3948         estimate D2E/DX2                !
 ! R5    R(2,9)                  1.0802         estimate D2E/DX2                !
 ! R6    R(3,4)                  1.3908         estimate D2E/DX2                !
 ! R7    R(3,10)                 1.0852         estimate D2E/DX2                !
 ! R8    R(4,5)                  1.3951         estimate D2E/DX2                !
 ! R9    R(4,11)                 1.0841         estimate D2E/DX2                !
 ! R10   R(5,6)                  1.3888         estimate D2E/DX2                !
 ! R11   R(5,12)                 1.085          estimate D2E/DX2                !
 ! R12   R(6,13)                 1.0839         estimate D2E/DX2                !
 ! R13   R(7,8)                  1.4362         estimate D2E/DX2                !
 ! R14   R(8,14)                 0.9688         estimate D2E/DX2                !
 ! A1    A(2,1,6)              121.0806         estimate D2E/DX2                !
 ! A2    A(2,1,7)              124.7567         estimate D2E/DX2                !
 ! A3    A(6,1,7)              114.1625         estimate D2E/DX2                !
 ! A4    A(1,2,3)              118.7392         estimate D2E/DX2                !
 ! A5    A(1,2,9)              119.8592         estimate D2E/DX2                !
 ! A6    A(3,2,9)              121.3994         estimate D2E/DX2                !
 ! A7    A(2,3,4)              121.0602         estimate D2E/DX2                !
 ! A8    A(2,3,10)             118.8955         estimate D2E/DX2                !
 ! A9    A(4,3,10)             120.0442         estimate D2E/DX2                !
 ! A10   A(3,4,5)              119.2885         estimate D2E/DX2                !
 ! A11   A(3,4,11)             120.3936         estimate D2E/DX2                !
 ! A12   A(5,4,11)             120.3178         estimate D2E/DX2                !
 ! A13   A(4,5,6)              120.6025         estimate D2E/DX2                !
 ! A14   A(4,5,12)             120.1986         estimate D2E/DX2                !
 ! A15   A(6,5,12)             119.1988         estimate D2E/DX2                !
 ! A16   A(1,6,5)              119.2282         estimate D2E/DX2                !
 ! A17   A(1,6,13)             119.2196         estimate D2E/DX2                !
 ! A18   A(5,6,13)             121.5522         estimate D2E/DX2                !
 ! A19   A(1,7,8)              111.4307         estimate D2E/DX2                !
 ! A20   A(7,8,14)             100.4687         estimate D2E/DX2                !
 ! D1    D(6,1,2,3)              0.2246         estimate D2E/DX2                !
 ! D2    D(6,1,2,9)           -179.2447         estimate D2E/DX2                !
 ! D3    D(7,1,2,3)           -179.6105         estimate D2E/DX2                !
 ! D4    D(7,1,2,9)              0.9202         estimate D2E/DX2                !
 ! D5    D(2,1,6,5)             -0.3123         estimate D2E/DX2                !
 ! D6    D(2,1,6,13)           179.704          estimate D2E/DX2                !
 ! D7    D(7,1,6,5)            179.5392         estimate D2E/DX2                !
 ! D8    D(7,1,6,13)            -0.4445         estimate D2E/DX2                !
 ! D9    D(2,1,7,8)             -2.93           estimate D2E/DX2                !
 ! D10   D(6,1,7,8)            177.2247         estimate D2E/DX2                !
 ! D11   D(1,2,3,4)              0.0063         estimate D2E/DX2                !
 ! D12   D(1,2,3,10)          -179.8961         estimate D2E/DX2                !
 ! D13   D(9,2,3,4)            179.4671         estimate D2E/DX2                !
 ! D14   D(9,2,3,10)            -0.4353         estimate D2E/DX2                !
 ! D15   D(2,3,4,5)             -0.1449         estimate D2E/DX2                !
 ! D16   D(2,3,4,11)          -179.9842         estimate D2E/DX2                !
 ! D17   D(10,3,4,5)           179.7564         estimate D2E/DX2                !
 ! D18   D(10,3,4,11)           -0.0829         estimate D2E/DX2                !
 ! D19   D(3,4,5,6)              0.0556         estimate D2E/DX2                !
 ! D20   D(3,4,5,12)          -179.8467         estimate D2E/DX2                !
 ! D21   D(11,4,5,6)           179.895          estimate D2E/DX2                !
 ! D22   D(11,4,5,12)           -0.0073         estimate D2E/DX2                !
 ! D23   D(4,5,6,1)              0.169          estimate D2E/DX2                !
 ! D24   D(4,5,6,13)          -179.8476         estimate D2E/DX2                !
 ! D25   D(12,5,6,1)          -179.9277         estimate D2E/DX2                !
 ! D26   D(12,5,6,13)            0.0556         estimate D2E/DX2                !
 ! D27   D(1,7,8,14)           108.5454         estimate D2E/DX2                !
 --------------------------------------------------------------------------------
 Trust Radius=3.00D-01 FncErr=1.00D-07 GrdErr=1.00D-06 EigMax=2.50D+02 EigMin=1.00D-04
 Number of steps in this run=     71 maximum allowed number of steps=    100.
 GradGradGradGradGradGradGradGradGradGradGradGradGradGradGradGradGradGrad

                          Input orientation:                          
 ---------------------------------------------------------------------
 Center     Atomic      Atomic             Coordinates (Angstroms)
 Number     Number       Type             X           Y           Z
 ---------------------------------------------------------------------
      1          6           0        0.432864   -0.254547   -0.001023
      2          6           0        0.021465    1.073843   -0.000626
      3          6           0       -1.345163    1.352672    0.002075
      4          6           0       -2.286433    0.328751    0.004472
      5          6           0       -1.852571   -0.997130    0.001084
      6          6           0       -0.496594   -1.297318   -0.003464
      7          8           0        1.746488   -0.669978    0.004125
      8          8           0        2.649713    0.444950   -0.058327
      9          1           0        0.757170    1.864685   -0.011071
     10          1           0       -1.669038    2.388431    0.000668
     11          1           0       -3.346046    0.557813    0.006302
     12          1           0       -2.574117   -1.807489    0.000380
     13          1           0       -0.142474   -2.321757   -0.008595
     14          1           0        3.005888    0.433630    0.842565
 ---------------------------------------------------------------------
                    Distance matrix (angstroms):
                    1          2          3          4          5
     1  C    0.000000
     2  C    1.390636   0.000000
     3  C    2.396778   1.394785   0.000000
     4  C    2.781159   2.425197   1.390830   0.000000
     5  C    2.403050   2.793017   2.403962   1.395066   0.000000
     6  C    1.396878   2.427097   2.782543   2.418199   1.388815
     7  O    1.377758   2.452884   3.694513   4.154746   3.613899
     8  O    2.325296   2.703058   4.097150   4.937913   4.727968
     9  H    2.143926   1.080186   2.163824   3.409231   3.873097
    10  H    3.376881   2.141482   1.085216   2.150226   3.390532
    11  H    3.865248   3.406826   2.152987   1.084091   2.156002
    12  H    3.384312   3.878031   3.390715   2.155528   1.085040
    13  H    2.145793   3.399565   3.866265   3.409094   2.163137
    14  H    2.793865   3.166642   4.525782   5.359297   5.134178
                    6          7          8          9         10
     6  C    0.000000
     7  O    2.329169   0.000000
     8  O    3.596909   1.436238   0.000000
     9  H    3.401506   2.720937   2.366347   0.000000
    10  H    3.867737   4.584724   4.736265   2.482123   0.000000
    11  H    3.400145   5.238452   5.997169   4.306344   2.482650
    12  H    2.139250   4.467838   5.689053   4.958071   4.292425
    13  H    1.083929   2.509325   3.931088   4.282016   4.951399
    14  H    3.997415   1.872704   0.968811   2.798811   5.136630
                   11         12         13         14
    11  H    0.000000
    12  H    2.488084   0.000000
    13  H    4.307554   2.485446   0.000000
    14  H    6.407950   6.071931   4.269522   0.000000
 Stoichiometry    C6H6O2
 Framework group  C1[X(C6H6O2)]
 Deg. of freedom    36
 Full point group                 C1      NOp   1
 Largest Abelian subgroup         C1      NOp   1
 Largest concise Abelian subgroup C1      NOp   1
                         Standard orientation:                         
 ---------------------------------------------------------------------
 Center     Atomic      Atomic             Coordinates (Angstroms)
 Number     Number       Type             X           Y           Z
 ---------------------------------------------------------------------
      1          6           0        0.464431   -0.267811   -0.010664
      2          6           0        0.063621    1.063812   -0.011295
      3          6           0       -1.300692    1.353535    0.000327
      4          6           0       -2.250033    0.337162    0.012497
      5          6           0       -1.826763   -0.992140    0.009970
      6          6           0       -0.473283   -1.303141   -0.003359
      7          8           0        1.774713   -0.693685   -0.013651
      8          8           0        2.686305    0.413819   -0.085875
      9          1           0        0.805497    1.848730   -0.029351
     10          1           0       -1.616323    2.391834   -0.001860
     11          1           0       -3.307751    0.574669    0.021206
     12          1           0       -2.554716   -1.796720    0.016834
     13          1           0       -0.127365   -2.330382   -0.007960
     14          1           0        3.048820    0.402297    0.812482
 ---------------------------------------------------------------------
 Rotational constants (GHZ):           5.0743151           1.5637861           1.1997688
 General basis read from cards:  (5D, 7F)
 There are   370 symmetry adapted cartesian basis functions of A   symmetry.
 There are   324 symmetry adapted basis functions of A   symmetry.
   324 basis functions,   516 primitive gaussians,   370 cartesian basis functions
    29 alpha electrons       29 beta electrons
       nuclear repulsion energy       344.9672546337 Hartrees.
 NAtoms=   14 NActive=   14 NUniq=   14 SFac= 1.00D+00 NAtFMM=   60 NAOKFM=F Big=F
 Integral buffers will be    131072 words long.
 Raffenetti 2 integral format.
 Two-electron integral symmetry is turned on.
 One-electron integrals computed using PRISM.
 NBasis=   324 RedAO= T EigKep=  2.19D-05  NBF=   324
 NBsUse=   324 1.00D-06 EigRej= -1.00D+00 NBFU=   324
 ExpMin= 7.42D-02 ExpMax= 1.36D+04 ExpMxC= 4.64D+02 IAcc=3 IRadAn=         5 AccDes= 0.00D+00
 Harris functional with IExCor=  402 and IRadAn=       5 diagonalized for initial guess.
 HarFok:  IExCor=  402 AccDes= 0.00D+00 IRadAn=         5 IDoV= 1 UseB2=F ITyADJ=14
 ICtDFT=  3500011 ScaDFX=  1.000000  1.000000  1.000000  1.000000
 FoFCou: FMM=F IPFlag=           0 FMFlag=      100000 FMFlg1=           0
         NFxFlg=           0 DoJE=T BraDBF=F KetDBF=T FulRan=T
         wScrn=  0.000000 ICntrl=       500 IOpCl=  0 I1Cent=   200000004 NGrid=           0
         NMat0=    1 NMatS0=      1 NMatT0=    0 NMatD0=    1 NMtDS0=    0 NMtDT0=    0
 Petite list used in FoFCou.
 Requested convergence on RMS density matrix=1.00D-08 within 128 cycles.
 Requested convergence on MAX density matrix=1.00D-06.
 Requested convergence on             energy=1.00D-06.
 No special actions if energy rises.
 Integral accuracy reduced to 1.0D-05 until final iterations.
 Initial convergence to 1.0D-05 achieved.  Increase integral accuracy.
 SCF Done:  E(RB3LYP) =  -382.751766051     A.U. after   14 cycles
            NFock= 14  Conv=0.38D-08     -V/T= 2.0036

 **********************************************************************

            Population analysis using the SCF Density.

 **********************************************************************

 Orbital symmetries:
       Occupied  (A) (A) (A) (A) (A) (A) (A) (A) (A) (A) (A) (A)
                 (A) (A) (A) (A) (A) (A) (A) (A) (A) (A) (A) (A)
                 (A) (A) (A) (A) (A)
       Virtual   (A) (A) (A) (A) (A) (A) (A) (A) (A) (A) (A) (A)
                 (A) (A) (A) (A) (A) (A) (A) (A) (A) (A) (A) (A)
                 (A) (A) (A) (A) (A) (A) (A) (A) (A) (A) (A) (A)
                 (A) (A) (A) (A) (A) (A) (A) (A) (A) (A) (A) (A)
                 (A) (A) (A) (A) (A) (A) (A) (A) (A) (A) (A) (A)
                 (A) (A) (A) (A) (A) (A) (A) (A) (A) (A) (A) (A)
                 (A) (A) (A) (A) (A) (A) (A) (A) (A) (A) (A) (A)
                 (A) (A) (A) (A) (A) (A) (A) (A) (A) (A) (A) (A)
                 (A) (A) (A) (A) (A) (A) (A) (A) (A) (A) (A) (A)
                 (A) (A) (A) (A) (A) (A) (A) (A) (A) (A) (A) (A)
                 (A) (A) (A) (A) (A) (A) (A) (A) (A) (A) (A) (A)
                 (A) (A) (A) (A) (A) (A) (A) (A) (A) (A) (A) (A)
                 (A) (A) (A) (A) (A) (A) (A) (A) (A) (A) (A) (A)
                 (A) (A) (A) (A) (A) (A) (A) (A) (A) (A) (A) (A)
                 (A) (A) (A) (A) (A) (A) (A) (A) (A) (A) (A) (A)
                 (A) (A) (A) (A) (A) (A) (A) (A) (A) (A) (A) (A)
                 (A) (A) (A) (A) (A) (A) (A) (A) (A) (A) (A) (A)
                 (A) (A) (A) (A) (A) (A) (A) (A) (A) (A) (A) (A)
                 (A) (A) (A) (A) (A) (A) (A) (A) (A) (A) (A) (A)
                 (A) (A) (A) (A) (A) (A) (A) (A) (A) (A) (A) (A)
                 (A) (A) (A) (A) (A) (A) (A) (A) (A) (A) (A) (A)
                 (A) (A) (A) (A) (A) (A) (A) (A) (A) (A) (A) (A)
                 (A) (A) (A) (A) (A) (A) (A) (A) (A) (A) (A) (A)
                 (A) (A) (A) (A) (A) (A) (A) (A) (A) (A) (A) (A)
                 (A) (A) (A) (A) (A) (A) (A)
 The electronic state is 1-A.
 Alpha  occ. eigenvalues --  -19.21550 -19.20395 -10.24351 -10.18374 -10.18306
 Alpha  occ. eigenvalues --  -10.18110 -10.17898 -10.17471  -1.15720  -0.95309
 Alpha  occ. eigenvalues --   -0.85550  -0.75716  -0.74090  -0.62703  -0.61116
 Alpha  occ. eigenvalues --   -0.55969  -0.52847  -0.49143  -0.48405  -0.45087
 Alpha  occ. eigenvalues --   -0.43615  -0.42699  -0.39779  -0.37313  -0.35765
 Alpha  occ. eigenvalues --   -0.34394  -0.32120  -0.26566  -0.23801
 Alpha virt. eigenvalues --   -0.02206  -0.01600  -0.00718   0.02034   0.02209
 Alpha virt. eigenvalues --    0.04094   0.05625   0.07961   0.09240   0.11786
 Alpha virt. eigenvalues --    0.13408   0.16516   0.16913   0.18048   0.18403
 Alpha virt. eigenvalues --    0.19718   0.20407   0.20958   0.22655   0.23729
 Alpha virt. eigenvalues --    0.25434   0.27173   0.27414   0.28020   0.28468
 Alpha virt. eigenvalues --    0.29809   0.30341   0.30964   0.32049   0.32838
 Alpha virt. eigenvalues --    0.33943   0.34393   0.35182   0.36649   0.37677
 Alpha virt. eigenvalues --    0.39552   0.41839   0.42710   0.43944   0.44859
 Alpha virt. eigenvalues --    0.45093   0.46015   0.47334   0.50119   0.54924
 Alpha virt. eigenvalues --    0.57015   0.58874   0.61226   0.63171   0.64200
 Alpha virt. eigenvalues --    0.65002   0.66796   0.69070   0.69854   0.74763
 Alpha virt. eigenvalues --    0.76111   0.77355   0.78798   0.81178   0.83293
 Alpha virt. eigenvalues --    0.85260   0.85688   0.89305   0.91999   0.94540
 Alpha virt. eigenvalues --    0.98036   0.99599   1.01563   1.03270   1.05411
 Alpha virt. eigenvalues --    1.07673   1.09463   1.10243   1.12799   1.13012
 Alpha virt. eigenvalues --    1.14828   1.15684   1.17159   1.18174   1.19486
 Alpha virt. eigenvalues --    1.20270   1.24130   1.25139   1.28429   1.29117
 Alpha virt. eigenvalues --    1.29471   1.32128   1.36525   1.37291   1.39295
 Alpha virt. eigenvalues --    1.40705   1.42135   1.45458   1.46028   1.49679
 Alpha virt. eigenvalues --    1.52125   1.54037   1.56258   1.57675   1.60057
 Alpha virt. eigenvalues --    1.60630   1.61437   1.62761   1.65173   1.67427
 Alpha virt. eigenvalues --    1.69139   1.73718   1.75882   1.76254   1.76961
 Alpha virt. eigenvalues --    1.80078   1.84259   1.85514   1.87388   1.88148
 Alpha virt. eigenvalues --    1.90351   1.92672   1.94322   1.95481   1.96277
 Alpha virt. eigenvalues --    1.96893   1.99189   2.04130   2.05815   2.08560
 Alpha virt. eigenvalues --    2.09799   2.18271   2.18399   2.19676   2.21117
 Alpha virt. eigenvalues --    2.23076   2.27513   2.32952   2.37687   2.43097
 Alpha virt. eigenvalues --    2.44426   2.48262   2.56683   2.61679   2.68630
 Alpha virt. eigenvalues --    2.70499   2.82739   2.84690   2.93113   2.94779
 Alpha virt. eigenvalues --    3.04713   3.14703   3.15420   3.20693   3.21804
 Alpha virt. eigenvalues --    3.22197   3.23562   3.28781   3.31995   3.32906
 Alpha virt. eigenvalues --    3.33701   3.34471   3.39814   3.44234   3.48186
 Alpha virt. eigenvalues --    3.49245   3.51901   3.55459   3.57548   3.61564
 Alpha virt. eigenvalues --    3.62600   3.63287   3.63953   3.64388   3.69819
 Alpha virt. eigenvalues --    3.70620   3.72171   3.78887   3.80990   3.83819
 Alpha virt. eigenvalues --    3.84461   3.88672   3.94011   3.94094   3.95216
 Alpha virt. eigenvalues --    3.97167   3.97749   3.99002   4.00826   4.01798
 Alpha virt. eigenvalues --    4.03840   4.05980   4.06370   4.08558   4.10534
 Alpha virt. eigenvalues --    4.12285   4.12434   4.14664   4.15971   4.17685
 Alpha virt. eigenvalues --    4.20011   4.20988   4.21541   4.22900   4.23777
 Alpha virt. eigenvalues --    4.26186   4.29293   4.29917   4.30722   4.31507
 Alpha virt. eigenvalues --    4.32051   4.34817   4.35086   4.35251   4.38507
 Alpha virt. eigenvalues --    4.41221   4.42141   4.42590   4.44699   4.46587
 Alpha virt. eigenvalues --    4.47566   4.48785   4.50863   4.51970   4.54612
 Alpha virt. eigenvalues --    4.55522   4.57515   4.59385   4.61144   4.64704
 Alpha virt. eigenvalues --    4.67297   4.69796   4.72007   4.75674   4.75717
 Alpha virt. eigenvalues --    4.76552   4.80968   4.83124   4.85039   4.87938
 Alpha virt. eigenvalues --    4.89184   4.93677   4.95235   4.97053   5.00254
 Alpha virt. eigenvalues --    5.02343   5.06611   5.09537   5.12442   5.14234
 Alpha virt. eigenvalues --    5.14571   5.17114   5.21374   5.23389   5.23932
 Alpha virt. eigenvalues --    5.27099   5.30685   5.31790   5.32188   5.37833
 Alpha virt. eigenvalues --    5.39674   5.44284   5.48476   5.49521   5.50574
 Alpha virt. eigenvalues --    5.54890   5.55857   5.59351   5.62927   5.68069
 Alpha virt. eigenvalues --    5.70242   5.72560   5.76832   5.83905   5.91428
 Alpha virt. eigenvalues --    5.98047   5.99741   6.00459   6.04086   6.04369
 Alpha virt. eigenvalues --    6.14476   6.18650   6.23420   6.27382   6.34196
 Alpha virt. eigenvalues --    6.40328   6.41399   6.43952   6.47750   6.57345
 Alpha virt. eigenvalues --    6.65056   6.68372   6.70329   6.88665   6.92625
 Alpha virt. eigenvalues --    7.08025   7.15426   7.35273   9.35183  11.34157
          Condensed to atoms (all electrons):
               1          2          3          4          5          6
     1  C    4.877170   0.385191   0.033478  -0.085364   0.035639   0.333197
     2  C    0.385191   5.081283   0.366247  -0.012091  -0.120415   0.031805
     3  C    0.033478   0.366247   4.939144   0.448471  -0.000362  -0.120480
     4  C   -0.085364  -0.012091   0.448471   4.899988   0.430897  -0.013029
     5  C    0.035639  -0.120415  -0.000362   0.430897   4.901633   0.404305
     6  C    0.333197   0.031805  -0.120480  -0.013029   0.404305   5.056137
     7  O    0.258967  -0.066029   0.013731  -0.002256   0.008333  -0.060235
     8  O   -0.042718  -0.037303  -0.012772   0.001503  -0.003280   0.025171
     9  H   -0.065470   0.464666  -0.058781   0.015061  -0.008208   0.018567
    10  H    0.012598  -0.052333   0.457003  -0.055516   0.016213  -0.006064
    11  H   -0.006040   0.017024  -0.056321   0.459684  -0.057266   0.015732
    12  H    0.016482  -0.007779   0.017033  -0.058067   0.460917  -0.056613
    13  H   -0.084994   0.018338  -0.008902   0.017631  -0.056759   0.475555
    14  H    0.001986  -0.000610  -0.000035  -0.000097   0.000280  -0.000702
               7          8          9         10         11         12
     1  C    0.258967  -0.042718  -0.065470   0.012598  -0.006040   0.016482
     2  C   -0.066029  -0.037303   0.464666  -0.052333   0.017024  -0.007779
     3  C    0.013731  -0.012772  -0.058781   0.457003  -0.056321   0.017033
     4  C   -0.002256   0.001503   0.015061  -0.055516   0.459684  -0.058067
     5  C    0.008333  -0.003280  -0.008208   0.016213  -0.057266   0.460917
     6  C   -0.060235   0.025171   0.018567  -0.006064   0.015732  -0.056613
     7  O    8.103432   0.000212  -0.010055   0.000053   0.000009  -0.000188
     8  O    0.000212   7.935276   0.030554  -0.000549   0.000020  -0.000013
     9  H   -0.010055   0.030554   0.591657  -0.010626   0.000183  -0.000056
    10  H    0.000053  -0.000549  -0.010626   0.624944  -0.010501  -0.000059
    11  H    0.000009   0.000020   0.000183  -0.010501   0.626548  -0.010460
    12  H   -0.000188  -0.000013  -0.000056  -0.000059  -0.010460   0.624992
    13  H    0.009136   0.000077   0.000535  -0.000000   0.000088  -0.012366
    14  H   -0.025730   0.316549  -0.002692   0.000041  -0.000002  -0.000000
              13         14
     1  C   -0.084994   0.001986
     2  C    0.018338  -0.000610
     3  C   -0.008902  -0.000035
     4  C    0.017631  -0.000097
     5  C   -0.056759   0.000280
     6  C    0.475555  -0.000702
     7  O    0.009136  -0.025730
     8  O    0.000077   0.316549
     9  H    0.000535  -0.002692
    10  H   -0.000000   0.000041
    11  H    0.000088  -0.000002
    12  H   -0.012366  -0.000000
    13  H    0.614574  -0.000109
    14  H   -0.000109   0.485489
 Mulliken charges:
               1
     1  C    0.329878
     2  C   -0.067995
     3  C   -0.017453
     4  C   -0.046813
     5  C   -0.011928
     6  C   -0.103347
     7  O   -0.229380
     8  O   -0.212728
     9  H    0.034664
    10  H    0.024797
    11  H    0.021301
    12  H    0.026178
    13  H    0.027196
    14  H    0.225632
 Sum of Mulliken charges =  -0.00000
 Mulliken charges with hydrogens summed into heavy atoms:
               1
     1  C    0.329878
     2  C   -0.033331
     3  C    0.007344
     4  C   -0.025513
     5  C    0.014250
     6  C   -0.076152
     7  O   -0.229380
     8  O    0.012903
 Electronic spatial extent (au):  <R**2>=            940.2050
 Charge=             -0.0000 electrons
 Dipole moment (field-independent basis, Debye):
    X=             -0.1850    Y=              0.4690    Z=              1.4467  Tot=              1.5320
 Quadrupole moment (field-independent basis, Debye-Ang):
   XX=            -42.0042   YY=            -43.0113   ZZ=            -48.9017
   XY=              2.0093   XZ=              5.0254   YZ=              0.6220
 Traceless Quadrupole moment (field-independent basis, Debye-Ang):
   XX=              2.6348   YY=              1.6278   ZZ=             -4.2626
   XY=              2.0093   XZ=              5.0254   YZ=              0.6220
 Octapole moment (field-independent basis, Debye-Ang**2):
  XXX=             21.5248  YYY=             -0.6462  ZZZ=              1.4021  XYY=              1.9655
  XXY=              4.5730  XXZ=             16.4215  XZZ=             15.3996  YZZ=             -0.1297
  YYZ=              0.1683  XYZ=              2.1343
 Hexadecapole moment (field-independent basis, Debye-Ang**3):
 XXXX=           -750.6364 YYYY=           -301.0800 ZZZZ=            -57.3385 XXXY=             16.5928
 XXXZ=             52.8601 YYYX=              2.4277 YYYZ=              0.1128 ZZZX=              5.7315
 ZZZY=              0.7071 XXYY=           -185.0739 XXZZ=           -147.0255 YYZZ=            -71.2611
 XXYZ=              6.7090 YYXZ=              1.3890 ZZXY=              1.9000
 N-N= 3.449672546337D+02 E-N=-1.584730712466D+03  KE= 3.813958378859D+02
 Calling FoFJK, ICntrl=      2127 FMM=F ISym2X=0 I1Cent= 0 IOpClX= 0 NMat=1 NMatS=1 NMatT=0.
 ***** Axes restored to original set *****
 -------------------------------------------------------------------
 Center     Atomic                   Forces (Hartrees/Bohr)
 Number     Number              X              Y              Z
 -------------------------------------------------------------------
      1        6          -0.004279952    0.000382475    0.000187201
      2        6           0.000475950   -0.001099536   -0.000228783
      3        6          -0.000405765    0.000027318    0.000132480
      4        6           0.000543369    0.000300275   -0.000060859
      5        6           0.000368867   -0.000250716    0.000033024
      6        6           0.000094352    0.000532004   -0.000065333
      7        8          -0.000588780   -0.001062446   -0.000259789
      8        8           0.002386063    0.001073591    0.002426047
      9        1          -0.001995762   -0.000905851   -0.000142467
     10        1           0.000586972   -0.002250952   -0.000023351
     11        1           0.002164851   -0.000449372   -0.000014493
     12        1           0.001469407    0.001772207    0.000001495
     13        1          -0.001052306    0.001746915   -0.000037029
     14        1           0.000232733    0.000184086   -0.001948141
 -------------------------------------------------------------------
 Cartesian Forces:  Max     0.004279952 RMS     0.001232478

 GradGradGradGradGradGradGradGradGradGradGradGradGradGradGradGradGradGrad
 Berny optimization.
 FormGI is forming the generalized inverse of G from B-inverse, IUseBI=4.
 Internal  Forces:  Max     0.003191901 RMS     0.001205428
 Search for a local minimum.
 Step number   1 out of a maximum of   71
 All quantities printed in internal units (Hartrees-Bohrs-Radians)
 Mixed Optimization -- RFO/linear search
 Second derivative matrix not updated -- first step.
 ITU=  0
     Eigenvalues ---    0.00815   0.01986   0.02141   0.02158   0.02171
     Eigenvalues ---    0.02184   0.02184   0.02184   0.02190   0.02201
     Eigenvalues ---    0.02210   0.15999   0.16000   0.16000   0.16000
     Eigenvalues ---    0.16000   0.16000   0.22000   0.22000   0.23495
     Eigenvalues ---    0.25000   0.25000   0.35371   0.35392   0.35505
     Eigenvalues ---    0.35524   0.35972   0.40106   0.42394   0.42534
     Eigenvalues ---    0.46342   0.46790   0.46943   0.47343   0.49514
     Eigenvalues ---    0.53621
 RFO step:  Lambda=-4.05370308D-04 EMin= 8.15443367D-03
 Linear search not attempted -- first point.
 Iteration  1 RMS(Cart)=  0.03387703 RMS(Int)=  0.00217040
 Iteration  2 RMS(Cart)=  0.00186289 RMS(Int)=  0.00000291
 Iteration  3 RMS(Cart)=  0.00000302 RMS(Int)=  0.00000231
 Iteration  4 RMS(Cart)=  0.00000000 RMS(Int)=  0.00000231
 Variable       Old X    -DE/DX   Delta X   Delta X   Delta X     New X
                                 (Linear)    (Quad)   (Total)
    R1        2.62792  -0.00218   0.00000  -0.00455  -0.00455   2.62337
    R2        2.63972  -0.00219   0.00000  -0.00471  -0.00471   2.63500
    R3        2.60359   0.00188   0.00000   0.00379   0.00379   2.60737
    R4        2.63576  -0.00213   0.00000  -0.00455  -0.00455   2.63121
    R5        2.04126  -0.00202   0.00000  -0.00561  -0.00561   2.03564
    R6        2.62829  -0.00292   0.00000  -0.00622  -0.00622   2.62207
    R7        2.05076  -0.00232   0.00000  -0.00656  -0.00656   2.04420
    R8        2.63629  -0.00241   0.00000  -0.00525  -0.00525   2.63104
    R9        2.04863  -0.00221   0.00000  -0.00622  -0.00622   2.04241
   R10        2.62448  -0.00268   0.00000  -0.00565  -0.00565   2.61883
   R11        2.05043  -0.00230   0.00000  -0.00649  -0.00649   2.04394
   R12        2.04833  -0.00199   0.00000  -0.00561  -0.00561   2.04272
   R13        2.71410   0.00261   0.00000   0.00649   0.00649   2.72059
   R14        1.83079  -0.00173   0.00000  -0.00322  -0.00322   1.82757
    A1        2.11326  -0.00023   0.00000  -0.00074  -0.00074   2.11251
    A2        2.17742   0.00069   0.00000   0.00266   0.00266   2.18007
    A3        1.99251  -0.00046   0.00000  -0.00191  -0.00191   1.99060
    A4        2.07239  -0.00001   0.00000   0.00010   0.00010   2.07249
    A5        2.09194   0.00087   0.00000   0.00532   0.00532   2.09726
    A6        2.11882  -0.00086   0.00000  -0.00543  -0.00543   2.11338
    A7        2.11290   0.00002   0.00000   0.00003   0.00003   2.11293
    A8        2.07512   0.00011   0.00000   0.00071   0.00071   2.07582
    A9        2.09517  -0.00012   0.00000  -0.00074  -0.00074   2.09443
   A10        2.08198   0.00009   0.00000   0.00017   0.00017   2.08215
   A11        2.10126  -0.00006   0.00000  -0.00019  -0.00019   2.10107
   A12        2.09994  -0.00003   0.00000   0.00002   0.00002   2.09996
   A13        2.10491   0.00006   0.00000   0.00007   0.00007   2.10498
   A14        2.09786  -0.00011   0.00000  -0.00054  -0.00054   2.09732
   A15        2.08041   0.00005   0.00000   0.00047   0.00047   2.08088
   A16        2.08093   0.00008   0.00000   0.00035   0.00035   2.08128
   A17        2.08077   0.00039   0.00000   0.00252   0.00252   2.08329
   A18        2.12149  -0.00047   0.00000  -0.00287  -0.00287   2.11861
   A19        1.94483   0.00319   0.00000   0.01275   0.01275   1.95758
   A20        1.75351   0.00128   0.00000   0.00800   0.00800   1.76151
    D1        0.00392   0.00010   0.00000   0.00458   0.00458   0.00850
    D2       -3.12841   0.00015   0.00000   0.00647   0.00648  -3.12193
    D3       -3.13479  -0.00004   0.00000  -0.00171  -0.00172  -3.13651
    D4        0.01606   0.00001   0.00000   0.00018   0.00018   0.01624
    D5       -0.00545  -0.00009   0.00000  -0.00413  -0.00412  -0.00957
    D6        3.13643  -0.00008   0.00000  -0.00384  -0.00384   3.13259
    D7        3.13355   0.00004   0.00000   0.00154   0.00154   3.13509
    D8       -0.00776   0.00004   0.00000   0.00183   0.00183  -0.00593
    D9       -0.05114   0.00039   0.00000   0.01902   0.01902  -0.03212
   D10        3.09316   0.00026   0.00000   0.01311   0.01311   3.10626
   D11        0.00011  -0.00006   0.00000  -0.00251  -0.00252  -0.00241
   D12       -3.13978   0.00000   0.00000   0.00004   0.00004  -3.13974
   D13        3.13229  -0.00009   0.00000  -0.00438  -0.00437   3.12792
   D14       -0.00760  -0.00004   0.00000  -0.00183  -0.00182  -0.00942
   D15       -0.00253   0.00000   0.00000   0.00003   0.00003  -0.00250
   D16       -3.14132   0.00003   0.00000   0.00130   0.00130  -3.14001
   D17        3.13734  -0.00006   0.00000  -0.00254  -0.00254   3.13480
   D18       -0.00145  -0.00003   0.00000  -0.00127  -0.00127  -0.00272
   D19        0.00097   0.00001   0.00000   0.00045   0.00045   0.00142
   D20       -3.13892   0.00003   0.00000   0.00127   0.00127  -3.13765
   D21        3.13976  -0.00002   0.00000  -0.00082  -0.00082   3.13894
   D22       -0.00013   0.00000   0.00000  -0.00000  -0.00000  -0.00013
   D23        0.00295   0.00003   0.00000   0.00156   0.00156   0.00451
   D24       -3.13893   0.00003   0.00000   0.00127   0.00126  -3.13767
   D25       -3.14033   0.00002   0.00000   0.00075   0.00075  -3.13958
   D26        0.00097   0.00001   0.00000   0.00046   0.00046   0.00143
   D27        1.89447   0.00115   0.00000   0.13394   0.13394   2.02841
         Item               Value     Threshold  Converged?
 Maximum Force            0.003192     0.000450     NO 
 RMS     Force            0.001205     0.000300     NO 
 Maximum Displacement     0.181043     0.001800     NO 
 RMS     Displacement     0.033665     0.001200     NO 
 Predicted change in Energy=-2.066055D-04
 GradGradGradGradGradGradGradGradGradGradGradGradGradGradGradGradGradGrad

                          Input orientation:                          
 ---------------------------------------------------------------------
 Center     Atomic      Atomic             Coordinates (Angstroms)
 Number     Number       Type             X           Y           Z
 ---------------------------------------------------------------------
      1          6           0        0.423956   -0.241284    0.004960
      2          6           0        0.005273    1.082288   -0.001371
      3          6           0       -1.360628    1.352526   -0.002000
      4          6           0       -2.293618    0.325496    0.000705
      5          6           0       -1.853026   -0.995241    0.001069
      6          6           0       -0.498287   -1.287111    0.000461
      7          8           0        1.740889   -0.652840    0.012059
      8          8           0        2.656922    0.456990   -0.030593
      9          1           0        0.729946    1.879173   -0.016085
     10          1           0       -1.690320    2.382782   -0.008676
     11          1           0       -3.351303    0.547810   -0.001289
     12          1           0       -2.568075   -1.806764   -0.000521
     13          1           0       -0.142271   -2.307758   -0.002887
     14          1           0        3.101692    0.360491    0.822732
 ---------------------------------------------------------------------
                    Distance matrix (angstroms):
                    1          2          3          4          5
     1  C    0.000000
     2  C    1.388229   0.000000
     3  C    2.392701   1.392377   0.000000
     4  C    2.776052   2.420256   1.387541   0.000000
     5  C    2.398565   2.787366   2.398849   1.392289   0.000000
     6  C    1.394384   2.422319   2.776927   2.413237   1.385823
     7  O    1.379761   2.454224   3.693386   4.151448   3.610206
     8  O    2.339869   2.724536   4.116249   4.952385   4.738101
     9  H    2.142524   1.077216   2.155935   3.399432   3.864492
    10  H    3.369877   2.136907   1.081743   2.143941   3.381953
    11  H    3.856850   3.398863   2.147174   1.080799   2.150779
    12  H    3.376834   3.868946   3.382165   2.149851   1.081604
    13  H    2.142659   3.393255   3.857729   3.400343   2.156246
    14  H    2.863765   3.284501   4.645063   5.457685   5.202150
                    6          7          8          9         10
     6  C    0.000000
     7  O    2.327304   0.000000
     8  O    3.605301   1.439672   0.000000
     9  H    3.396202   2.726516   2.395005   0.000000
    10  H    3.858645   4.581335   4.754752   2.472118   0.000000
    11  H    3.392144   5.231841   6.008983   4.292941   2.475084
    12  H    2.134025   4.460816   5.694390   4.946041   4.280516
    13  H    1.080962   2.507044   3.934473   4.276836   4.939398
    14  H    4.043584   1.880376   0.967107   2.938569   5.267284
                   11         12         13         14
    11  H    0.000000
    12  H    2.481424   0.000000
    13  H    4.295598   2.477000   0.000000
    14  H    6.508091   6.125439   4.280712   0.000000
 Stoichiometry    C6H6O2
 Framework group  C1[X(C6H6O2)]
 Deg. of freedom    36
 Full point group                 C1      NOp   1
 Largest Abelian subgroup         C1      NOp   1
 Largest concise Abelian subgroup C1      NOp   1
                         Standard orientation:                         
 ---------------------------------------------------------------------
 Center     Atomic      Atomic             Coordinates (Angstroms)
 Number     Number       Type             X           Y           Z
 ---------------------------------------------------------------------
      1          6           0        0.459394   -0.261067   -0.012008
      2          6           0        0.052486    1.066187   -0.013656
      3          6           0       -1.310860    1.348600    0.001958
      4          6           0       -2.252874    0.329934    0.016046
      5          6           0       -1.824106   -0.994681    0.011465
      6          6           0       -0.472129   -1.298625   -0.005247
      7          8           0        1.772595   -0.684354   -0.020534
      8          8           0        2.697915    0.417254   -0.074383
      9          1           0        0.784011    1.856573   -0.037211
     10          1           0       -1.631406    2.381755   -0.001028
     11          1           0       -3.308483    0.561676    0.026626
     12          1           0       -2.546334   -1.799792    0.018606
     13          1           0       -0.125295   -2.322408   -0.012601
     14          1           0        3.151964    0.316904    0.773594
 ---------------------------------------------------------------------
 Rotational constants (GHZ):           5.1071082           1.5556505           1.1963195
 Basis read from rwf:  (5D, 7F)
 There are   370 symmetry adapted cartesian basis functions of A   symmetry.
 There are   324 symmetry adapted basis functions of A   symmetry.
   324 basis functions,   516 primitive gaussians,   370 cartesian basis functions
    29 alpha electrons       29 beta electrons
       nuclear repulsion energy       344.9454657996 Hartrees.
 NAtoms=   14 NActive=   14 NUniq=   14 SFac= 1.00D+00 NAtFMM=   60 NAOKFM=F Big=F
 Integral buffers will be    131072 words long.
 Raffenetti 2 integral format.
 Two-electron integral symmetry is turned on.
 One-electron integrals computed using PRISM.
 NBasis=   324 RedAO= T EigKep=  2.16D-05  NBF=   324
 NBsUse=   324 1.00D-06 EigRej= -1.00D+00 NBFU=   324
 Initial guess from the checkpoint file:  "/wrk/irikura/Gau-27741.chk"
 B after Tr=    -0.000000   -0.000000    0.000000
         Rot=    0.999999   -0.001245   -0.000431   -0.000786 Ang=  -0.18 deg.
 ExpMin= 7.42D-02 ExpMax= 1.36D+04 ExpMxC= 4.64D+02 IAcc=3 IRadAn=         5 AccDes= 0.00D+00
 Harris functional with IExCor=  402 and IRadAn=       5 diagonalized for initial guess.
 HarFok:  IExCor=  402 AccDes= 0.00D+00 IRadAn=         5 IDoV= 1 UseB2=F ITyADJ=14
 ICtDFT=  3500011 ScaDFX=  1.000000  1.000000  1.000000  1.000000
 FoFCou: FMM=F IPFlag=           0 FMFlag=      100000 FMFlg1=           0
         NFxFlg=           0 DoJE=T BraDBF=F KetDBF=T FulRan=T
         wScrn=  0.000000 ICntrl=       500 IOpCl=  0 I1Cent=   200000004 NGrid=           0
         NMat0=    1 NMatS0=      1 NMatT0=    0 NMatD0=    1 NMtDS0=    0 NMtDT0=    0
 Petite list used in FoFCou.
 Requested convergence on RMS density matrix=1.00D-08 within 128 cycles.
 Requested convergence on MAX density matrix=1.00D-06.
 Requested convergence on             energy=1.00D-06.
 No special actions if energy rises.
 Integral accuracy reduced to 1.0D-05 until final iterations.
 Initial convergence to 1.0D-05 achieved.  Increase integral accuracy.
 SCF Done:  E(RB3LYP) =  -382.751922419     A.U. after   12 cycles
            NFock= 12  Conv=0.43D-08     -V/T= 2.0034
 Calling FoFJK, ICntrl=      2127 FMM=F ISym2X=0 I1Cent= 0 IOpClX= 0 NMat=1 NMatS=1 NMatT=0.
 ***** Axes restored to original set *****
 -------------------------------------------------------------------
 Center     Atomic                   Forces (Hartrees/Bohr)
 Number     Number              X              Y              Z
 -------------------------------------------------------------------
      1        6           0.000393837    0.001372562    0.000257772
      2        6           0.000998081   -0.000584752   -0.000304682
      3        6          -0.000145219    0.000276133   -0.000087498
      4        6          -0.000238956    0.000110336    0.000011178
      5        6          -0.000122644   -0.000164985   -0.000103227
      6        6           0.000703335   -0.000283803    0.000090507
      7        8           0.000260148   -0.002024053    0.000699942
      8        8          -0.000816182    0.002288330   -0.000646110
      9        1           0.000219953    0.000203174    0.000212584
     10        1           0.000007530    0.000056526    0.000008186
     11        1          -0.000083470    0.000005877    0.000035588
     12        1          -0.000024343   -0.000050174    0.000007326
     13        1          -0.000107712   -0.000080829    0.000037385
     14        1          -0.001044358   -0.001124342   -0.000218952
 -------------------------------------------------------------------
 Cartesian Forces:  Max     0.002288330 RMS     0.000652714

 GradGradGradGradGradGradGradGradGradGradGradGradGradGradGradGradGradGrad
 Berny optimization.
 Using GEDIIS/GDIIS optimizer.
 FormGI is forming the generalized inverse of G from B-inverse, IUseBI=4.
 Internal  Forces:  Max     0.004794212 RMS     0.000757205
 Search for a local minimum.
 Step number   2 out of a maximum of   71
 All quantities printed in internal units (Hartrees-Bohrs-Radians)
 Mixed Optimization -- En-DIIS/RFO-DIIS
 Update second derivatives using D2CorX and points    1    2
 DE= -1.56D-04 DEPred=-2.07D-04 R= 7.57D-01
 TightC=F SS=  1.41D+00  RLast= 1.39D-01 DXNew= 5.0454D-01 4.1730D-01
 Trust test= 7.57D-01 RLast= 1.39D-01 DXMaxT set to 4.17D-01
 ITU=  1  0
 Use linear search instead of GDIIS.
     Eigenvalues ---    0.00706   0.01958   0.02132   0.02158   0.02171
     Eigenvalues ---    0.02184   0.02184   0.02187   0.02194   0.02208
     Eigenvalues ---    0.02212   0.15652   0.16000   0.16000   0.16000
     Eigenvalues ---    0.16000   0.17015   0.21999   0.22001   0.23488
     Eigenvalues ---    0.24996   0.29325   0.35381   0.35449   0.35516
     Eigenvalues ---    0.35811   0.37826   0.40716   0.42401   0.42806
     Eigenvalues ---    0.46510   0.46805   0.46808   0.47652   0.53150
     Eigenvalues ---    0.54440
 RFO step:  Lambda=-8.85596723D-05 EMin= 7.06426746D-03
 Quartic linear search produced a step of -0.18414.
 Iteration  1 RMS(Cart)=  0.00673422 RMS(Int)=  0.00017210
 Iteration  2 RMS(Cart)=  0.00015586 RMS(Int)=  0.00000176
 Iteration  3 RMS(Cart)=  0.00000009 RMS(Int)=  0.00000176
 Variable       Old X    -DE/DX   Delta X   Delta X   Delta X     New X
                                 (Linear)    (Quad)   (Total)
    R1        2.62337  -0.00060   0.00084  -0.00292  -0.00208   2.62129
    R2        2.63500  -0.00010   0.00087  -0.00210  -0.00123   2.63378
    R3        2.60737  -0.00127  -0.00070  -0.00058  -0.00128   2.60609
    R4        2.63121   0.00034   0.00084  -0.00124  -0.00040   2.63081
    R5        2.03564   0.00030   0.00103  -0.00158  -0.00054   2.03510
    R6        2.62207   0.00036   0.00114  -0.00182  -0.00068   2.62140
    R7        2.04420   0.00005   0.00121  -0.00251  -0.00130   2.04290
    R8        2.63104   0.00044   0.00097  -0.00127  -0.00031   2.63073
    R9        2.04241   0.00008   0.00115  -0.00230  -0.00115   2.04126
   R10        2.61883   0.00030   0.00104  -0.00172  -0.00068   2.61814
   R11        2.04394   0.00005   0.00120  -0.00247  -0.00128   2.04266
   R12        2.04272   0.00004   0.00103  -0.00215  -0.00112   2.04161
   R13        2.72059  -0.00026  -0.00120   0.00207   0.00088   2.72146
   R14        1.82757  -0.00056   0.00059  -0.00214  -0.00155   1.82602
    A1        2.11251   0.00066   0.00014   0.00171   0.00185   2.11436
    A2        2.18007  -0.00104  -0.00049  -0.00226  -0.00275   2.17732
    A3        1.99060   0.00038   0.00035   0.00054   0.00088   1.99148
    A4        2.07249  -0.00015  -0.00002  -0.00064  -0.00066   2.07183
    A5        2.09726   0.00005  -0.00098   0.00235   0.00137   2.09863
    A6        2.11338   0.00010   0.00100  -0.00169  -0.00069   2.11269
    A7        2.11293  -0.00011  -0.00000  -0.00031  -0.00031   2.11261
    A8        2.07582   0.00003  -0.00013   0.00033   0.00020   2.07602
    A9        2.09443   0.00008   0.00014  -0.00002   0.00012   2.09455
   A10        2.08215  -0.00002  -0.00003   0.00026   0.00022   2.08237
   A11        2.10107   0.00002   0.00004  -0.00010  -0.00006   2.10101
   A12        2.09996  -0.00000  -0.00000  -0.00016  -0.00016   2.09980
   A13        2.10498  -0.00003  -0.00001   0.00013   0.00012   2.10510
   A14        2.09732   0.00003   0.00010  -0.00018  -0.00008   2.09724
   A15        2.08088  -0.00000  -0.00009   0.00005  -0.00004   2.08085
   A16        2.08128  -0.00035  -0.00006  -0.00116  -0.00122   2.08006
   A17        2.08329   0.00030  -0.00046   0.00232   0.00185   2.08514
   A18        2.11861   0.00004   0.00053  -0.00116  -0.00063   2.11798
   A19        1.95758  -0.00479  -0.00235  -0.01052  -0.01286   1.94472
   A20        1.76151  -0.00264  -0.00147  -0.01022  -0.01169   1.74982
    D1        0.00850  -0.00001  -0.00084   0.00158   0.00074   0.00923
    D2       -3.12193  -0.00008  -0.00119  -0.00045  -0.00164  -3.12357
    D3       -3.13651  -0.00010   0.00032  -0.00436  -0.00403  -3.14055
    D4        0.01624  -0.00017  -0.00003  -0.00638  -0.00641   0.00983
    D5       -0.00957   0.00002   0.00076  -0.00096  -0.00021  -0.00978
    D6        3.13259  -0.00000   0.00071  -0.00152  -0.00081   3.13178
    D7        3.13509   0.00010  -0.00028   0.00437   0.00410   3.13918
    D8       -0.00593   0.00008  -0.00034   0.00382   0.00349  -0.00244
    D9       -0.03212   0.00009  -0.00350   0.01131   0.00780  -0.02432
   D10        3.10626   0.00001  -0.00241   0.00574   0.00333   3.10959
   D11       -0.00241   0.00000   0.00046  -0.00102  -0.00056  -0.00296
   D12       -3.13974  -0.00003  -0.00001  -0.00107  -0.00108  -3.14082
   D13        3.12792   0.00008   0.00081   0.00105   0.00186   3.12977
   D14       -0.00942   0.00005   0.00034   0.00100   0.00134  -0.00809
   D15       -0.00250  -0.00000  -0.00001  -0.00013  -0.00014  -0.00263
   D16       -3.14001  -0.00002  -0.00024  -0.00033  -0.00057  -3.14058
   D17        3.13480   0.00003   0.00047  -0.00008   0.00039   3.13519
   D18       -0.00272   0.00001   0.00023  -0.00028  -0.00005  -0.00277
   D19        0.00142   0.00001  -0.00008   0.00076   0.00068   0.00210
   D20       -3.13765  -0.00001  -0.00023   0.00024   0.00000  -3.13765
   D21        3.13894   0.00003   0.00015   0.00097   0.00112   3.14006
   D22       -0.00013   0.00001   0.00000   0.00044   0.00044   0.00031
   D23        0.00451  -0.00002  -0.00029  -0.00023  -0.00052   0.00399
   D24       -3.13767  -0.00000  -0.00023   0.00033   0.00010  -3.13757
   D25       -3.13958  -0.00000  -0.00014   0.00029   0.00015  -3.13943
   D26        0.00143   0.00002  -0.00008   0.00085   0.00077   0.00220
   D27        2.02841   0.00005  -0.02466   0.05856   0.03390   2.06231
         Item               Value     Threshold  Converged?
 Maximum Force            0.004794     0.000450     NO 
 RMS     Force            0.000757     0.000300     NO 
 Maximum Displacement     0.030463     0.001800     NO 
 RMS     Displacement     0.006759     0.001200     NO 
 Predicted change in Energy=-5.312621D-05
 GradGradGradGradGradGradGradGradGradGradGradGradGradGradGradGradGradGrad

                          Input orientation:                          
 ---------------------------------------------------------------------
 Center     Atomic      Atomic             Coordinates (Angstroms)
 Number     Number       Type             X           Y           Z
 ---------------------------------------------------------------------
      1          6           0        0.423626   -0.242101    0.007607
      2          6           0        0.006981    1.080951   -0.000604
      3          6           0       -1.358539    1.352002   -0.002897
      4          6           0       -2.291611    0.325529   -0.000645
      5          6           0       -1.851781   -0.995289    0.000787
      6          6           0       -0.497586   -1.287967    0.002488
      7          8           0        1.740524   -0.651536    0.011896
      8          8           0        2.640802    0.471882   -0.025834
      9          1           0        0.731428    1.877689   -0.013257
     10          1           0       -1.687571    2.381745   -0.010022
     11          1           0       -3.348614    0.548117   -0.003399
     12          1           0       -2.566882   -1.805865   -0.001141
     13          1           0       -0.143068   -2.308512   -0.000102
     14          1           0        3.103442    0.349910    0.813689
 ---------------------------------------------------------------------
                    Distance matrix (angstroms):
                    1          2          3          4          5
     1  C    0.000000
     2  C    1.387129   0.000000
     3  C    2.391106   1.392163   0.000000
     4  C    2.773948   2.419543   1.387183   0.000000
     5  C    2.396835   2.786713   2.398557   1.392125   0.000000
     6  C    1.393734   2.422059   2.776815   2.412862   1.385462
     7  O    1.379085   2.450886   3.690335   4.148847   3.608732
     8  O    2.329540   2.703445   4.095102   4.934648   4.726161
     9  H    2.142122   1.076929   2.155091   3.398254   3.863570
    10  H    3.367793   2.136272   1.081057   2.143124   3.381041
    11  H    3.854136   3.397638   2.146307   1.080190   2.150030
    12  H    3.374696   3.867619   3.381156   2.149096   1.080929
    13  H    2.142722   3.392783   3.857038   3.399178   2.155053
    14  H    2.860360   3.284139   4.645458   5.456220   5.198519
                    6          7          8          9         10
     6  C    0.000000
     7  O    2.326859   0.000000
     8  O    3.598243   1.440136   0.000000
     9  H    3.395895   2.723213   2.371109   0.000000
    10  H    3.857850   4.577457   4.731029   2.470959   0.000000
    11  H    3.391106   5.228646   5.989943   4.291225   2.474127
    12  H    2.133124   4.459417   5.684075   4.944448   4.278942
    13  H    1.080372   2.508712   3.934614   4.276588   4.938026
    14  H    4.038328   1.871713   0.966288   2.940136   5.268838
                   11         12         13         14
    11  H    0.000000
    12  H    2.480391   0.000000
    13  H    4.293701   2.475385   0.000000
    14  H    6.506609   6.120775   4.274260   0.000000
 Stoichiometry    C6H6O2
 Framework group  C1[X(C6H6O2)]
 Deg. of freedom    36
 Full point group                 C1      NOp   1
 Largest Abelian subgroup         C1      NOp   1
 Largest concise Abelian subgroup C1      NOp   1
                         Standard orientation:                         
 ---------------------------------------------------------------------
 Center     Atomic      Atomic             Coordinates (Angstroms)
 Number     Number       Type             X           Y           Z
 ---------------------------------------------------------------------
      1          6           0        0.459762   -0.264658   -0.010658
      2          6           0        0.058099    1.063043   -0.013212
      3          6           0       -1.304173    1.349580    0.001892
      4          6           0       -2.248740    0.333765    0.015688
      5          6           0       -1.823956   -0.991961    0.011170
      6          6           0       -0.473261   -1.299995   -0.004387
      7          8           0        1.771873   -0.689019   -0.023187
      8          8           0        2.684301    0.424122   -0.072016
      9          1           0        0.791330    1.851510   -0.034828
     10          1           0       -1.621552    2.382995   -0.000769
     11          1           0       -3.303097    0.568340    0.026404
     12          1           0       -2.548185   -1.794365    0.018084
     13          1           0       -0.130418   -2.324499   -0.011761
     14          1           0        3.156134    0.296548    0.761537
 ---------------------------------------------------------------------
 Rotational constants (GHZ):           5.1005401           1.5636886           1.2005734
 Basis read from rwf:  (5D, 7F)
 There are   370 symmetry adapted cartesian basis functions of A   symmetry.
 There are   324 symmetry adapted basis functions of A   symmetry.
   324 basis functions,   516 primitive gaussians,   370 cartesian basis functions
    29 alpha electrons       29 beta electrons
       nuclear repulsion energy       345.2888407351 Hartrees.
 NAtoms=   14 NActive=   14 NUniq=   14 SFac= 1.00D+00 NAtFMM=   60 NAOKFM=F Big=F
 Integral buffers will be    131072 words long.
 Raffenetti 2 integral format.
 Two-electron integral symmetry is turned on.
 One-electron integrals computed using PRISM.
 NBasis=   324 RedAO= T EigKep=  2.16D-05  NBF=   324
 NBsUse=   324 1.00D-06 EigRej= -1.00D+00 NBFU=   324
 Initial guess from the checkpoint file:  "/wrk/irikura/Gau-27741.chk"
 B after Tr=     0.000000    0.000000   -0.000000
         Rot=    1.000000   -0.000293   -0.000063    0.000512 Ang=  -0.07 deg.
 ExpMin= 7.42D-02 ExpMax= 1.36D+04 ExpMxC= 4.64D+02 IAcc=3 IRadAn=         5 AccDes= 0.00D+00
 Harris functional with IExCor=  402 and IRadAn=       5 diagonalized for initial guess.
 HarFok:  IExCor=  402 AccDes= 0.00D+00 IRadAn=         5 IDoV= 1 UseB2=F ITyADJ=14
 ICtDFT=  3500011 ScaDFX=  1.000000  1.000000  1.000000  1.000000
 FoFCou: FMM=F IPFlag=           0 FMFlag=      100000 FMFlg1=           0
         NFxFlg=           0 DoJE=T BraDBF=F KetDBF=T FulRan=T
         wScrn=  0.000000 ICntrl=       500 IOpCl=  0 I1Cent=   200000004 NGrid=           0
         NMat0=    1 NMatS0=      1 NMatT0=    0 NMatD0=    1 NMtDS0=    0 NMtDT0=    0
 Petite list used in FoFCou.
 Requested convergence on RMS density matrix=1.00D-08 within 128 cycles.
 Requested convergence on MAX density matrix=1.00D-06.
 Requested convergence on             energy=1.00D-06.
 No special actions if energy rises.
 Integral accuracy reduced to 1.0D-05 until final iterations.
 Initial convergence to 1.0D-05 achieved.  Increase integral accuracy.
 SCF Done:  E(RB3LYP) =  -382.751976363     A.U. after   10 cycles
            NFock= 10  Conv=0.87D-08     -V/T= 2.0034
 Calling FoFJK, ICntrl=      2127 FMM=F ISym2X=0 I1Cent= 0 IOpClX= 0 NMat=1 NMatS=1 NMatT=0.
 ***** Axes restored to original set *****
 -------------------------------------------------------------------
 Center     Atomic                   Forces (Hartrees/Bohr)
 Number     Number              X              Y              Z
 -------------------------------------------------------------------
      1        6           0.000526663   -0.000068341   -0.000130560
      2        6           0.000273050    0.000228369   -0.000124336
      3        6          -0.000109999    0.000010095   -0.000014879
      4        6          -0.000188302    0.000024763   -0.000006497
      5        6          -0.000171162   -0.000067824   -0.000003416
      6        6           0.000113155   -0.000076097    0.000096975
      7        8          -0.000389452   -0.000666427    0.000094867
      8        8           0.000540909    0.000833518   -0.000118122
      9        1           0.000212829    0.000177985    0.000128607
     10        1          -0.000137407    0.000502083   -0.000005367
     11        1          -0.000508420    0.000083202    0.000001119
     12        1          -0.000361476   -0.000386459    0.000002719
     13        1           0.000143349   -0.000406973    0.000028600
     14        1           0.000056261   -0.000187895    0.000050290
 -------------------------------------------------------------------
 Cartesian Forces:  Max     0.000833518 RMS     0.000280124

 GradGradGradGradGradGradGradGradGradGradGradGradGradGradGradGradGradGrad
 Berny optimization.
 Using GEDIIS/GDIIS optimizer.
 FormGI is forming the generalized inverse of G from B-inverse, IUseBI=4.
 Internal  Forces:  Max     0.000881758 RMS     0.000278202
 Search for a local minimum.
 Step number   3 out of a maximum of   71
 All quantities printed in internal units (Hartrees-Bohrs-Radians)
 Mixed Optimization -- En-DIIS/RFO-DIIS
 Swapping is turned off.
 Update second derivatives using D2CorX and points    1    2    3
 DE= -5.39D-05 DEPred=-5.31D-05 R= 1.02D+00
 TightC=F SS=  1.41D+00  RLast= 4.08D-02 DXNew= 7.0182D-01 1.2228D-01
 Trust test= 1.02D+00 RLast= 4.08D-02 DXMaxT set to 4.17D-01
 ITU=  1  1  0
     Eigenvalues ---    0.00530   0.01926   0.02146   0.02160   0.02171
     Eigenvalues ---    0.02183   0.02184   0.02186   0.02192   0.02204
     Eigenvalues ---    0.02210   0.15589   0.16000   0.16000   0.16000
     Eigenvalues ---    0.16004   0.16620   0.21999   0.22012   0.23555
     Eigenvalues ---    0.24985   0.32805   0.35381   0.35449   0.35516
     Eigenvalues ---    0.35952   0.37312   0.41596   0.42415   0.44615
     Eigenvalues ---    0.46731   0.46807   0.46939   0.52418   0.53138
     Eigenvalues ---    0.56862
 En-DIIS/RFO-DIIS/Sim-DIIS IScMMF=       -3 using points:     3    2
 RFO step:  Lambda=-1.94611828D-05.
 Use linear search instead of GDIIS.
 RFO step:  Lambda=-1.93917624D-05 EMin= 5.30323819D-03
 Quartic linear search produced a step of  0.01017.
 Iteration  1 RMS(Cart)=  0.00858723 RMS(Int)=  0.00020366
 Iteration  2 RMS(Cart)=  0.00018011 RMS(Int)=  0.00000023
 Iteration  3 RMS(Cart)=  0.00000005 RMS(Int)=  0.00000022
 Variable       Old X    -DE/DX   Delta X   Delta X   Delta X     New X
                                 (Linear)    (Quad)   (Total)
    R1        2.62129   0.00055  -0.00002   0.00053   0.00051   2.62180
    R2        2.63378   0.00062  -0.00001   0.00088   0.00087   2.63465
    R3        2.60609   0.00020  -0.00001   0.00031   0.00030   2.60639
    R4        2.63081   0.00075  -0.00000   0.00136   0.00136   2.63216
    R5        2.03510   0.00027  -0.00001   0.00041   0.00040   2.03550
    R6        2.62140   0.00065  -0.00001   0.00099   0.00098   2.62238
    R7        2.04290   0.00052  -0.00001   0.00092   0.00091   2.04381
    R8        2.63073   0.00056  -0.00000   0.00095   0.00094   2.63168
    R9        2.04126   0.00051  -0.00001   0.00095   0.00094   2.04220
   R10        2.61814   0.00073  -0.00001   0.00116   0.00115   2.61930
   R11        2.04266   0.00053  -0.00001   0.00096   0.00095   2.04361
[...]
 ! A20   A(7,8,14)              99.9343         -DE/DX =    0.0                 !
 ! D1    D(6,1,2,3)              0.4004         -DE/DX =    0.0                 !
 ! D2    D(6,1,2,9)           -179.3179         -DE/DX =    0.0                 !
 ! D3    D(7,1,2,3)            179.8746         -DE/DX =    0.0                 !
 ! D4    D(7,1,2,9)              0.1563         -DE/DX =    0.0                 !
 ! D5    D(2,1,6,5)             -0.4177         -DE/DX =    0.0                 !
 ! D6    D(2,1,6,13)           179.5755         -DE/DX =    0.0                 !
 ! D7    D(7,1,6,5)           -179.9446         -DE/DX =    0.0                 !
 ! D8    D(7,1,6,13)             0.0487         -DE/DX =    0.0                 !
 ! D9    D(2,1,7,8)             -0.7226         -DE/DX =    0.0                 !
 ! D10   D(6,1,7,8)            178.7843         -DE/DX =    0.0                 !
 ! D11   D(1,2,3,4)             -0.1463         -DE/DX =    0.0                 !
 ! D12   D(1,2,3,10)          -179.9672         -DE/DX =    0.0                 !
 ! D13   D(9,2,3,4)            179.5695         -DE/DX =    0.0                 !
 ! D14   D(9,2,3,10)            -0.2514         -DE/DX =    0.0                 !
 ! D15   D(2,3,4,5)             -0.0854         -DE/DX =    0.0                 !
 ! D16   D(2,3,4,11)          -179.9383         -DE/DX =    0.0                 !
 ! D17   D(10,3,4,5)           179.7336         -DE/DX =    0.0                 !
 ! D18   D(10,3,4,11)           -0.1193         -DE/DX =    0.0                 !
 ! D19   D(3,4,5,6)              0.0693         -DE/DX =    0.0                 !
 ! D20   D(3,4,5,12)          -179.8641         -DE/DX =    0.0                 !
 ! D21   D(11,4,5,6)           179.9223         -DE/DX =    0.0                 !
 ! D22   D(11,4,5,12)           -0.0111         -DE/DX =    0.0                 !
 ! D23   D(4,5,6,1)              0.1776         -DE/DX =    0.0                 !
 ! D24   D(4,5,6,13)          -179.8155         -DE/DX =    0.0                 !
 ! D25   D(12,5,6,1)          -179.8884         -DE/DX =    0.0                 !
 ! D26   D(12,5,6,13)            0.1185         -DE/DX =    0.0                 !
 ! D27   D(1,7,8,14)           121.8724         -DE/DX =    0.0                 !
 --------------------------------------------------------------------------------
 GradGradGradGradGradGradGradGradGradGradGradGradGradGradGradGradGradGrad


 ----------------------------------------------------------------------

 Electric dipole moment (input orientation):
 (Debye = 10**-18 statcoulomb cm , SI units = C m)
                  (au)            (Debye)         (10**-30 SI)
   Tot        0.529764D+00      0.134652D+01      0.449152D+01
   x          0.227392D-01      0.577973D-01      0.192791D+00
   y          0.896024D-01      0.227747D+00      0.759681D+00
   z          0.521636D+00      0.132587D+01      0.442261D+01

 Dipole polarizability, Alpha (input orientation).
 (esu units = cm**3 , SI units = C**2 m**2 J**-1)
 Alpha(0;0):
               (au)            (10**-24 esu)      (10**-40 SI)
   iso        0.774787D+02      0.114812D+02      0.127745D+02
   aniso      0.511015D+02      0.757245D+01      0.842549D+01
   xx         0.102713D+03      0.152205D+02      0.169351D+02
   yx         0.235472D+01      0.348933D+00      0.388241D+00
   yy         0.844557D+02      0.125150D+02      0.139249D+02
   zx         0.184349D+01      0.273177D+00      0.303950D+00
   zy        -0.429141D-01     -0.635922D-02     -0.707559D-02
   zz         0.452674D+02      0.670794D+01      0.746358D+01

 ----------------------------------------------------------------------

 Dipole orientation:
     6          0.79845762         -0.44901239         -0.02370251
     6         -0.00175472          2.02058762          0.34699599
     6         -2.58378128          2.53142342          0.31161746
     6         -4.33586470          0.62186817         -0.09064659
     6         -3.49135792         -1.84220347         -0.46770409
     6         -0.93061905         -2.39325454         -0.44091534
     8          3.28774620         -1.21775232         -0.03935258
     8          4.97740681          0.88730560          0.34520907
     1          1.35887808          3.50496311          0.64644682
     1         -3.21507780          4.45454199          0.59879119
     1         -6.33477023          1.04167642         -0.11582815
     1         -4.83350256         -3.35037440         -0.78782632
     1         -0.25052992         -4.29667585         -0.73675428
     1          5.85755597          0.31562846          1.83926988

 Electric dipole moment (dipole orientation):
 (Debye = 10**-18 statcoulomb cm , SI units = C m)
                  (au)            (Debye)         (10**-30 SI)
   Tot        0.529764D+00      0.134652D+01      0.449152D+01
   x          0.000000D+00      0.000000D+00      0.000000D+00
   y          0.000000D+00      0.000000D+00      0.000000D+00
   z          0.529764D+00      0.134652D+01      0.449152D+01

 Dipole polarizability, Alpha (dipole orientation).
 (esu units = cm**3 , SI units = C**2 m**2 J**-1)
 Alpha(0;0):
               (au)            (10**-24 esu)      (10**-40 SI)
   iso        0.774787D+02      0.114812D+02      0.127745D+02
   aniso      0.511015D+02      0.757245D+01      0.842549D+01
   xx         0.102432D+03      0.151788D+02      0.168887D+02
   yx         0.165800D+01      0.245690D+00      0.273367D+00
   yy         0.833345D+02      0.123489D+02      0.137400D+02
   zx         0.464734D+01      0.688665D+00      0.766243D+00
   zy         0.656133D+01      0.972289D+00      0.108182D+01
   zz         0.466700D+02      0.691578D+01      0.769485D+01

 ----------------------------------------------------------------------
 1\1\GINC-GAMBA\Freq\RB3LYP\Gen\C6H6O2\IRIKURA\17-Jun-2022\0\\#N Geom=A
 llCheck Guess=TCheck SCRF=Check GenChk RB3LYP/ChkBas Freq\\phenyl hydr
 operoxide, B3LYP/pcseg-2\\0,1\C,0.4224641242,-0.237849271,0.009701473\
 C,0.0030426587,1.0848972472,-0.000004068\C,-1.3638309687,1.3531550631,
 -0.0055115634\C,-2.2955735216,0.3246149994,-0.0044064047\C,-1.85288934
 6,-0.9959030905,0.0004848116\C,-0.4973874854,-1.2858627683,0.005599457
 1\O,1.7396486525,-0.6450045811,0.0138097915\O,2.6376086077,0.484036223
 9,-0.0125995951\H,0.7263184928,1.883240624,-0.0077345432\H,-1.69478835
 72,2.3830817121,-0.0136632977\H,-3.3537514256,0.545181331,-0.009698456
 7\H,-2.5668142193,-1.8085429116,-0.0008458926\H,-0.1408690797,-2.30638
 63362,0.006364867\H,3.1379738676,0.317897758,0.7970684211\\Version=ES6
 4L-G16RevB.01\State=1-A\HF=-382.7519915\RMSD=4.497e-09\RMSF=2.863e-05\
 ZeroPoint=0.1074535\Thermal=0.1144944\Dipole=0.0227392,0.0896024,0.521
 6358\DipoleDeriv=1.3593293,-0.1424408,0.0155029,-0.411169,0.097605,-0.
 0099815,0.0006621,0.0069737,0.0749722,-0.2420869,-0.0188673,-0.0072279
 ,0.2601318,-0.0863283,0.0001685,-0.0093784,-0.0060974,-0.1457765,0.157
 2471,0.0706155,0.005109,-0.0136865,0.1430325,-0.0031724,0.0012759,-0.0
 03675,-0.1331409,-0.0307176,-0.0569748,-0.0016343,-0.033557,-0.2099859
 ,0.000098,0.002333,0.0003736,-0.1596513,0.1428644,-0.0599415,0.001825,
 -0.0134417,0.1480174,-0.0013001,-0.0013987,-0.00205,-0.1291285,-0.3408
 053,0.0528406,-0.0072606,-0.1176842,0.0346957,0.0026577,-0.0092322,0.0
 03816,-0.1595996,-0.9267007,0.1385111,-0.0269645,0.4784463,-0.1352314,
 0.0186661,0.0435508,0.0460777,-0.1291162,-0.5460457,0.0426408,0.048817
 5,-0.098625,-0.2028179,-0.0689399,-0.0445345,-0.1057071,-0.1459761,0.0
 577986,-0.0505175,0.0007529,-0.051804,0.0329936,-0.0004982,-0.0004675,
 -0.0001396,0.1524429,0.044644,0.0442534,-0.0013123,0.0539563,-0.080033
 1,0.0016641,-0.0007125,0.0025201,0.1313977,-0.0939102,0.0323275,-0.001
 3646,0.0346768,0.0579741,0.0003441,-0.0013097,0.0003325,0.1463819,-0.0
 107493,-0.082743,-0.0011366,-0.0797255,-0.0226242,0.0000427,0.0008971,
 -0.0000306,0.1326187,0.064858,0.0484734,0.0004705,0.0504715,-0.0296615
 ,0.000732,-0.0000805,0.0000666,0.1519298,0.3642742,-0.0181775,-0.02557
 72,-0.0579899,0.2523641,0.0595191,0.0183952,0.0575398,0.212646\Polar=1
 02.7129829,2.3547199,84.4557089,1.8434902,-0.0429141,45.2673931\Quadru
 pole=2.7805785,0.7936367,-3.5742153,0.9032616,3.6732066,0.2614791\PG=C
 01 [X(C6H6O2)]\NImag=0\\0.60566213,0.01036970,0.71865437,0.00529115,-0
 .00169639,0.15067346,-0.13556112,0.00294032,-0.00008895,0.70549285,0.0
 6946248,-0.30567990,0.00220254,0.04804554,0.70242015,-0.00108875,0.002
 07407,-0.06565483,0.00020200,-0.00476844,0.12585721,-0.00315581,0.0930
 2841,-0.00028518,-0.32107292,0.00504468,-0.00048783,0.66286543,0.04245
 144,0.01089834,-0.00009122,0.06844419,-0.13405034,0.00083569,-0.016491
 67,0.73138985,-0.00048532,0.00052636,0.00197212,-0.00105362,0.00040425
 ,-0.05998996,0.00194374,-0.00355443,0.13793803,0.00146948,-0.01706966,
 -0.00008386,-0.04782025,-0.01151677,-0.00004922,-0.22134955,-0.1335899
 0,-0.00007430,0.74226645,-0.01734381,-0.07141683,0.00020370,-0.0575764
 6,0.05047109,-0.00065825,-0.07085116,-0.24122566,0.00073424,-0.0146051
 6,0.65406983,0.00012886,0.00019057,-0.00509507,0.00002559,-0.00027358,
 0.00784536,-0.00039646,0.00033038,-0.06332724,0.00241512,-0.00180918,0
 .12938393,-0.05139506,-0.06360620,0.00008814,-0.03573607,0.03007593,-0
 .00044921,0.05744589,-0.00053963,0.00027010,-0.14768151,0.02740975,-0.
 00045076,0.69738544,-0.01391727,0.05889679,-0.00002732,0.03420673,-0.0
 3026584,0.00022546,-0.04887408,-0.05680119,0.00006715,0.09035133,-0.30
 358099,0.00091935,0.03906234,0.69888019,-0.00054676,-0.00055130,0.0031
 1073,-0.00018867,0.00021882,-0.00430886,0.00039871,0.00017244,0.007215
 38,-0.00067442,0.00054907,-0.06308101,0.00194606,-0.00093689,0.1365522
 2,-0.17984259,-0.05370780,-0.00025139,0.05432087,-0.04120380,0.0003335
 0,-0.05740318,-0.02168029,-0.00009975,-0.00769297,0.08213069,-0.000358
 93,-0.33341040,0.01361696,-0.00077532,0.68943352,-0.11530115,-0.244337
 84,-0.00094273,-0.00087734,-0.04577874,0.00028242,-0.01856019,-0.00838
 328,-0.00014720,0.03664954,0.00972919,0.00013439,0.07621579,-0.1364755
 0,0.00042769,-0.04052099,0.71707177,-0.00066587,-0.00060205,-0.0682957
 8,0.00020693,0.00011200,0.00935970,-0.00032597,-0.00003662,-0.00362046
 ,-0.00006143,0.00052589,0.00771412,-0.00076080,-0.00005899,-0.05815883
 ,0.00198832,-0.00001888,0.12457461,-0.21557718,0.08844602,-0.00398201,
 -0.02968059,0.01756801,0.00026207,0.00233650,-0.00141131,0.00015346,-0
 .00557439,0.00312566,-0.00004963,0.00526619,-0.00012391,0.00011467,-0.
 05265985,-0.00975901,-0.00007172,0.43185256,0.03676944,-0.13645057,-0.
 00223688,0.04643140,-0.00655981,0.00021916,-0.00675087,-0.00771892,0.0
 0005039,0.00315061,0.00311772,-0.00003731,-0.00136427,-0.00781017,0.00
 028161,-0.03057970,0.01578031,-0.00012502,0.02776155,0.32112167,-0.003
 29181,0.00349802,-0.03364544,-0.00077770,-0.00008326,0.00570693,0.0001
 3602,0.00017215,0.00692435,0.00007734,-0.00029082,-0.00129682,-0.00037
 108,0.00025901,0.00266560,0.00061076,0.00006414,0.00787354,0.02538689,
 0.00255575,0.03507719,-0.03067039,-0.04568926,0.00250779,0.00356216,0.
 00359395,-0.00026953,-0.00212805,-0.00268065,-0.00001370,0.00012993,0.
 00191288,0.00004104,0.00103841,-0.00492736,-0.00021946,-0.00780307,0.0
 0775726,-0.00042514,-0.11608454,-0.07422952,-0.00314470,0.29146047,-0.
 00430379,0.00961126,0.00420782,0.00580000,-0.00260360,0.00031098,-0.00
 059274,0.00123074,0.00006467,0.00019907,0.00115909,-0.00007642,0.00185
 058,-0.00156843,-0.00057116,0.00006726,0.00250190,-0.00050785,-0.08783
 952,-0.17447008,0.02268692,0.06186814,0.20713114,0.00067188,-0.0058627
 2,-0.00664091,-0.00051572,0.00005454,0.00118035,-0.00030119,0.00011641
 ,0.00042474,-0.00009605,0.00040667,-0.00012777,0.00033097,-0.00074080,
 0.00268446,-0.00248895,0.00060570,0.00115955,-0.03057221,-0.00150056,-
 0.02615967,0.22494746,-0.10798483,0.39714532,0.01213708,0.00597649,-0.
 00014800,-0.18376037,-0.14485138,0.00155792,-0.01497495,-0.02338375,0.
 00015413,-0.00431376,0.00255767,-0.00004269,-0.00036961,0.00085955,0.0
 0000762,-0.00030960,0.00234432,-0.00003405,-0.00086520,-0.00179947,0.0
 0001506,-0.00474526,0.00289757,-0.00008725,0.19642864,-0.02164864,-0.0
 1744238,0.00014450,-0.14272550,-0.22051958,0.00169268,0.00596979,0.009
 67296,-0.00005445,0.00215025,0.00105683,0.00010795,0.00114667,-0.00014
 267,-0.00000937,0.00311255,-0.00466544,0.00010919,-0.00202825,0.000273
 61,-0.00018251,-0.00030184,0.00176503,0.00030801,0.15533493,0.22939827
 ,0.00045769,-0.00029473,0.00436167,0.00184835,0.00219052,-0.03455792,-
 0.00020416,-0.00017029,0.00234510,-0.00007020,0.00010680,0.00708805,0.
 00002532,-0.00001976,-0.00096570,-0.00010152,-0.00001926,0.00522786,-0
 .00023604,0.00004131,-0.00269132,0.00011509,-0.00013164,-0.00123022,-0
 .00144849,-0.00190771,0.02472377,-0.00537445,0.00023648,-0.00004384,-0
 .00612032,0.03041653,-0.00023565,-0.08529275,0.08008936,-0.00068258,0.
 01103857,-0.02105284,0.00015443,-0.00232158,-0.00347670,-0.00002555,-0
 .00103662,-0.00042889,0.00000290,-0.00063019,0.00193700,-0.00002402,0.
 00019930,-0.00016737,-0.00006863,0.00125098,-0.00046739,0.00001413,0.0
 8694028,0.00055148,0.00204238,0.00005703,0.00023411,-0.00239926,0.0000
 3310,0.08029721,-0.30982980,0.00212514,0.00980214,-0.01778971,0.000173
 68,-0.00426468,-0.00183735,0.00004771,-0.00054422,0.00056059,-0.000014
 12,0.00004804,-0.00030104,-0.00000334,0.00005336,0.00001816,0.00003428
 ,0.00025639,0.00080607,-0.00003233,-0.08673448,0.32877401,-0.00008259,
 -0.00006010,0.00727472,-0.00011423,0.00018190,0.00352937,-0.00062591,0
 .00225616,-0.03749088,-0.00004876,-0.00005491,0.00373885,-0.00005898,0
 .00005292,0.00724222,0.00008235,0.00003699,-0.00129313,0.00003886,0.00
 001211,0.00013270,0.00000838,0.00000295,0.00003610,-0.00000495,-0.0000
 6727,-0.00425425,0.00081461,-0.00233989,0.02589597,0.00059324,-0.00050
 522,0.00000888,-0.00055096,-0.00381571,-0.00001375,-0.01639301,0.00672
 896,-0.00011147,-0.32597071,0.05564205,-0.00142967,-0.00570282,-0.0002
 9479,-0.00002901,0.00149247,0.00180752,-0.00003931,0.00006415,0.000008
 84,-0.00000298,-0.00020020,0.00005031,-0.00000680,-0.00071787,0.000412
 41,-0.00000876,0.00089896,-0.00024339,0.00002010,0.34606169,-0.0005231
 5,-0.00166353,-0.00000560,-0.00295246,-0.00310193,0.00004837,-0.024522
 28,0.00905629,-0.00014518,0.05569979,-0.07088869,0.00035452,0.03083863
 ,-0.00156012,0.00016295,0.00105600,-0.00518574,0.00003175,-0.00004991,
 0.00017600,-0.00002348,0.00002201,0.00018586,0.00004039,-0.00104656,0.
 00029548,-0.00000630,0.00065718,0.00097875,-0.00002275,-0.06002130,0.0
 7074007,0.00003382,0.00000815,-0.00046421,-0.00001662,0.00004525,0.007
 01189,0.00002860,0.00000338,0.00200584,-0.00148548,0.00040080,-0.03379
 403,-0.00007410,-0.00003665,0.00184455,-0.00005167,0.00001459,0.006530
 35,-0.00000929,0.00002722,-0.00050125,-0.00001173,0.00002274,-0.000382
 67,0.00000533,0.00000942,0.00044684,0.00002293,-0.00003556,-0.00412583
 ,0.00157029,-0.00040534,0.02484528,-0.00433474,0.00268795,-0.00000866,
 -0.00044654,0.00081678,-0.00000231,0.00054239,0.00244873,-0.00003251,0
 .01061953,0.00865484,0.00002809,-0.17975454,-0.13678808,-0.00032808,-0
 .01677811,-0.02436740,-0.00002714,-0.00014123,-0.00126495,0.00000255,-
 0.00086568,-0.00019566,-0.00016936,0.00000980,-0.00005278,0.00000402,0
 .00033613,0.00051610,-0.00000646,0.00073193,-0.00058276,0.00001854,0.1
 8887605,0.00238825,0.00104701,-0.00000458,0.00095509,-0.00003147,0.000
 00698,0.00324016,-0.00475031,0.00003805,-0.02206771,-0.01697495,-0.000
 05384,-0.13723895,-0.21578947,-0.00021787,0.00597297,0.00809864,0.0000
 1143,-0.00029893,0.00032167,-0.00000478,0.00033679,0.00016562,0.000032
 39,-0.00006832,0.00000597,-0.00000261,-0.00108029,-0.00096878,0.000004
 51,0.00034510,0.00111780,-0.00000891,0.14794351,0.22692438,0.00001726,
 0.00008724,0.00769038,-0.00000003,-0.00005201,-0.00117704,0.00000017,0
 .00004541,0.00686838,0.00006828,0.00006995,0.00346533,-0.00030672,-0.0
 0026599,-0.03737297,-0.00018778,-0.00010384,0.00342584,-0.00002675,-0.
 00001794,0.00041287,0.00008877,0.00008915,-0.00025128,0.00000141,-0.00
 000666,-0.00074594,-0.00000511,-0.00000202,0.00007425,0.00002065,-0.00
 001583,-0.00382266,0.00037240,0.00021624,0.02588404,0.01104258,-0.0195
 5932,0.00002482,-0.00274302,-0.00295753,-0.00002568,-0.00112637,-0.000
 45157,0.00000093,-0.00535756,-0.00000519,-0.00002898,-0.00458787,0.030
 55570,-0.00008124,-0.08777320,0.08439776,-0.00019162,0.00081918,-0.000
 32703,-0.00003319,0.00040670,0.00077210,0.00015275,0.00035888,-0.00107
 445,0.00000687,0.00008159,0.00005676,0.00000292,-0.00034269,0.00141344
 ,-0.00000744,0.00124830,-0.00047400,0.00002548,0.08796057,0.01007603,-
 0.01883843,0.00004636,-0.00397565,-0.00184606,-0.00003243,-0.00078363,
 0.00052162,0.00000286,0.00081399,0.00202330,-0.00003158,0.00023082,-0.
 00136001,0.00002078,0.08388110,-0.30946615,0.00012282,0.00143435,0.000
 56393,-0.00006632,-0.00015513,0.00049226,0.00009608,0.00064126,-0.0008
 1812,0.00001298,0.00004147,-0.00004785,0.00000148,-0.00012118,-0.00016
 921,-0.00000422,0.00028212,0.00081144,0.00001580,-0.09233841,0.3281496
 4,0.00017837,0.00000240,0.00442698,-0.00003673,0.00005983,0.00527465,-
 0.00002046,-0.00000629,-0.00109212,-0.00005208,0.00002852,0.00747037,-
 0.00005777,0.00014690,0.00257789,-0.00011588,0.00002232,-0.03426629,-0
 .00005212,-0.00010837,-0.00225832,0.00006212,0.00024415,-0.00115930,0.
 00000319,-0.00001960,0.00006649,0.00000508,-0.00000538,-0.00076077,-0.
 00000203,0.00000508,0.00037822,0.00002395,-0.00000723,-0.00447223,0.00
 027201,-0.00013681,0.02377221,-0.00499319,-0.00354793,-0.00302888,0.00
 011626,-0.00067871,0.00026645,-0.00029361,0.00006609,0.00003089,0.0002
 3675,0.00000107,-0.00003601,-0.00017647,-0.00025042,0.00040144,-0.0005
 3728,0.00064277,0.00040490,-0.01912541,0.00025697,-0.01858314,-0.13429
 979,0.01959405,-0.19179692,-0.00012877,0.00017223,-0.00040231,0.000030
 12,-0.00002882,-0.00002536,0.00003581,0.00001137,-0.00002316,-0.000043
 27,0.00004634,-0.00006803,0.00001290,-0.00002712,-0.00020763,0.1591659
 4,0.00096898,-0.00532067,-0.00185723,0.00105004,-0.00005471,-0.0002698
 0,-0.00015364,-0.00001029,-0.00011186,0.00003247,0.00024976,0.00007105
 ,0.00018324,-0.00058526,0.00040553,-0.00160074,0.00055027,0.00045045,-
 0.03687280,-0.00804431,-0.02858148,0.05243937,-0.04561895,0.11439444,0
 .00028128,0.00031397,0.00023301,0.00002993,-0.00000616,-0.00000408,0.0
 0000639,0.00001898,-0.00004089,-0.00009839,0.00002246,-0.00005950,-0.0
 0000826,-0.00001636,-0.00022552,-0.01625787,0.05850126,-0.00061793,0.0
 0268048,0.00028617,0.00050940,-0.00029238,-0.00007686,0.00013993,-0.00
 007317,-0.00017327,0.00013507,-0.00021248,0.00001592,-0.00013119,0.000
 41558,-0.00000567,0.00141625,-0.00035635,-0.00023108,0.00904383,0.0008
 3854,0.00775965,-0.22368640,0.08164251,-0.36667869,0.00002078,-0.00012
 419,0.00018559,0.00007129,-0.00003829,0.00000067,0.00002385,-0.0000185
 9,0.00002768,0.00012496,-0.00000976,0.00002103,-0.00011761,-0.00004777
 ,0.00004222,0.21306777,-0.08440412,0.35882665\\-0.00012297,0.00004400,
 -0.00000878,0.00005558,-0.00002414,0.00000032,-0.00002586,0.00000068,0
 .00000189,0.00000428,0.00000758,-0.00000243,-0.00000690,-0.00000683,0.
 00000317,0.00004203,0.00000473,0.00000018,0.00009728,-0.00002355,0.000
 01385,-0.00000450,0.00000487,-0.00000949,-0.00000852,0.00000866,0.0000
 0246,-0.00000365,0.00000848,-0.00000090,-0.00001131,-0.00000155,0.0000
 0085,-0.00000668,-0.00000733,-0.00000018,-0.00000264,-0.00000851,-0.00
 000077,-0.00000612,-0.00000707,-0.00000018\\\@


 THERE IS SOMETHING FASCINATING ABOUT SCIENCE.
 ONE GETS SUCH WHOLESALE CONJECTURE OUT OF SUCH TRIFLING INVESTMENTS.

                                                       -- MARK TWAIN
 Job cpu time:       0 days  1 hours 23 minutes 34.8 seconds.
 Elapsed time:       0 days  0 hours  6 minutes 58.0 seconds.
 File lengths (MBytes):  RWF=    132 Int=      0 D2E=      0 Chk=      9 Scr=      1
 Normal termination of Gaussian 16 at Fri Jun 17 20:45:43 2022.
