 Entering Gaussian System, Link 0=g16
 AtFile(1): pcseg2.gbs
            -H     0
            S   4   1.00
                  0.754732D+02           0.427821D-02
                  0.113575D+02           0.328672D-01
                  0.260081D+01           0.159578D+00
                  0.735503D+00           0.500000D+00
            S   1   1.00
                  0.231761D+00           1.0000000
            S   1   1.00
                  0.741675D-01           1.0000000
            P   1   1.00
                  0.160000D+01           1.0000000
            P   1   1.00
                  0.450000D+00           1.0000000
            D   1   1.00
                  0.125000D+01           1.0000000
            ****
            -C     0
            S   7   1.00
                  0.731999D+04           0.695369D-03
                  0.109818D+04           0.537138D-02
                  0.250014D+03           0.274734D-01
                  0.707586D+02           0.105078D+00
                  0.228595D+02           0.291262D+00
                  0.803936D+01           0.500000D+00
                  0.289309D+01           0.362224D+00
            S   2   1.00
                  0.521640D+01          -0.957844D-01
                  0.556124D+00           0.500000D+00
            S   1   1.00
                  0.228813D+00           1.0000000
            S   1   1.00
                  0.936338D-01           1.0000000
            P   4   1.00
                  0.339855D+02           0.818395D-02
                  0.772957D+01           0.586921D-01
                  0.224954D+01           0.222514D+00
                  0.767681D+00           0.500000D+00
            P   1   1.00
                  0.263283D+00           1.0000000
            P   1   1.00
                  0.848744D-01           1.0000000
            D   1   1.00
                  0.140000D+01           1.0000000
            D   1   1.00
                  0.450000D+00           1.0000000
            F   1   1.00
                  0.950000D+00           1.0000000
            ****
            -O     0
            S   7   1.00
                  0.135887D+05           0.665492D-03
                  0.203847D+04           0.514222D-02
                  0.464041D+03           0.263472D-01
                  0.131339D+03           0.101500D+00
                  0.425340D+02           0.285877D+00
                  0.150429D+02           0.500000D+00
                  0.546616D+01           0.368211D+00
            S   2   1.00
                  0.100915D+02          -0.100084D+00
                  0.110429D+01           0.500000D+00
            S   1   1.00
                  0.448082D+00           1.0000000
            S   1   1.00
                  0.175325D+00           1.0000000
            P   4   1.00
                  0.608220D+02           0.908253D-02
                  0.140332D+02           0.645878D-01
                  0.418244D+01           0.241502D+00
                  0.142490D+01           0.500000D+00
            P   1   1.00
                  0.478741D+00           1.0000000
            P   1   1.00
                  0.146257D+00           1.0000000
            D   1   1.00
                  0.220000D+01           1.0000000
            D   1   1.00
                  0.650000D+00           1.0000000
            F   1   1.00
                  0.110000D+01           1.0000000
            ****
            -N     0
            S   7   1.00
                  0.101643D+05           0.682757D-03
                  0.152481D+04           0.527488D-02
                  0.347119D+03           0.270037D-01
                  0.982389D+02           0.103673D+00
                  0.317799D+02           0.289575D+00
                  0.112240D+02           0.500000D+00
                  0.406611D+01           0.364621D+00
            S   2   1.00
                  0.747898D+01          -0.975681D-01
                  0.805040D+00           0.500000D+00
            S   1   1.00
                  0.324626D+00           1.0000000
            S   1   1.00
                  0.128132D+00           1.0000000
            P   4   1.00
                  0.482704D+02           0.829547D-02
                  0.110815D+02           0.596223D-01
                  0.326643D+01           0.227889D+00
                  0.111680D+01           0.500000D+00
            P   1   1.00
                  0.382049D+00           1.0000000
            P   1   1.00
                  0.121222D+00           1.0000000
            D   1   1.00
                  0.180000D+01           1.0000000
            D   1   1.00
                  0.550000D+00           1.0000000
            F   1   1.00
                  0.102000D+01           1.0000000
            ****
            -F     0
            S   7   1.00
                  0.174507D+05           0.655972D-03
                  0.261768D+04           0.506944D-02
                  0.595857D+03           0.259899D-01
                  0.168651D+03           0.100353D+00
                  0.546654D+02           0.284095D+00
                  0.193717D+02           0.500000D+00
                  0.706202D+01           0.370721D+00
            S   2   1.00
                  0.131197D+02          -0.101997D+00
                  0.145046D+01           0.500000D+00
            S   1   1.00
                  0.588255D+00           1.0000000
            S   1   1.00
                  0.227960D+00           1.0000000
            P   4   1.00
                  0.779407D+02           0.931135D-02
                  0.180425D+02           0.663964D-01
                  0.542342D+01           0.246386D+00
                  0.184876D+01           0.500000D+00
            P   1   1.00
                  0.617455D+00           1.0000000
            P   1   1.00
                  0.185496D+00           1.0000000
            D   1   1.00
                  0.280000D+01           1.0000000
            D   1   1.00
                  0.800000D+00           1.0000000
            F   1   1.00
                  0.120000D+01           1.0000000
            ****
            -Cl     0
            S   8   1.00
                  0.154272D+06           0.222473D-03
                  0.231232D+05           0.172590D-02
                  0.526257D+04           0.899286D-02
                  0.148995D+04           0.367724D-01
                  0.485417D+03           0.121446D+00
                  0.174634D+03           0.304148D+00
                  0.672393D+02           0.500000D+00
                  0.265780D+02           0.360252D+00
            S   3   1.00
                  0.131826D+03          -0.531330D-01
                  0.400703D+02          -0.233346D+00
                  0.789448D+01           0.500000D+00
            S   2   1.00
                  0.427711D+01           0.500000D+00
                  0.196233D+01           0.370517D+00
            S   1   1.00
                  0.520793D+00           1.0000000
            S   1   1.00
                  0.181633D+00           1.0000000
            P   7   1.00
                  0.124440D+04           0.988206D-03
                  0.295109D+03           0.829674D-02
                  0.947224D+02           0.430906D-01
                  0.352588D+02           0.148443D+00
                  0.144211D+02           0.344744D+00
                  0.610371D+01           0.500000D+00
                  0.258886D+01           0.348278D+00
            P   2   1.00
                  0.109447D+02          -0.196768D-01
                  0.104413D+01           0.500000D+00
            P   1   1.00
                  0.376184D+00           1.0000000
            P   1   1.00
                  0.120613D+00           1.0000000
            D   1   1.00
                  0.231000D+01           1.0000000
            D   1   1.00
                  0.520000D+00           1.0000000
            F   1   1.00
                  0.720000D+00           1.0000000
            ****
            -S     0
            S   8   1.00
                  0.134700D+06           0.226231D-03
                  0.201904D+05           0.175488D-02
                  0.459528D+04           0.914190D-02
                  0.130109D+04           0.373551D-01
                  0.423902D+03           0.123121D+00
                  0.152485D+03           0.306801D+00
                  0.586925D+02           0.500000D+00
                  0.231461D+02           0.354358D+00
            S   3   1.00
                  0.116327D+03          -0.491772D-01
                  0.352841D+02          -0.215962D+00
                  0.677831D+01           0.500000D+00
            S   2   1.00
                  0.360404D+01           0.500000D+00
                  0.164871D+01           0.366278D+00
            S   1   1.00
                  0.421821D+00           1.0000000
            S   1   1.00
                  0.147554D+00           1.0000000
            P   7   1.00
                  0.104863D+04           0.105273D-02
                  0.248717D+03           0.879338D-02
                  0.797887D+02           0.453358D-01
                  0.296023D+02           0.154476D+00
                  0.120627D+02           0.352366D+00
                  0.507628D+01           0.500000D+00
                  0.213375D+01           0.346429D+00
            P   2   1.00
                  0.928958D+01          -0.185932D-01
                  0.837819D+00           0.500000D+00
            P   1   1.00
                  0.301495D+00           1.0000000
            P   1   1.00
                  0.974740D-01           1.0000000
            D   1   1.00
                  0.210000D+01           1.0000000
            D   1   1.00
                  0.480000D+00           1.0000000
            F   1   1.00
                  0.660000D+00           1.0000000
            ****
            -Br     0
            S    10   1.00
                  0.233625D+07           0.532336D-04
                  0.349961D+06           0.413715D-03
                  0.796444D+05           0.217123D-02
                  0.225555D+05           0.910109D-02
                  0.735546D+04           0.323789D-01
                  0.265352D+04           0.988755D-01
                  0.103517D+04           0.248138D+00
                  0.422205D+03           0.474328D+00
                  0.180035D+03           0.500000D+00
                  0.793308D+02           0.187769D+00
            S    4   1.00
                  0.620834D+03          -0.226511D-01
                  0.190829D+03          -0.109497D+00
                  0.312505D+02           0.500000D+00
                  0.135270D+02           0.492812D+00
            S    2   1.00
                  0.216097D+02          -0.165418D+00
                  0.372566D+01           0.500000D+00
            S    1   1.00
                  0.169770D+01           1.0000000
            S    1   1.00
                  0.489332D+00           1.0000000
            S    1   1.00
                  0.175712D+00           1.0000000
            P    8   1.00
                  0.960829D+04           0.478974D-03
                  0.227618D+04           0.417853D-02
                  0.736723D+03           0.229315D-01
                  0.281579D+03           0.892653D-01
                  0.118395D+03           0.255288D+00
                  0.527481D+02           0.479074D+00
                  0.245098D+02           0.500000D+00
                  0.112009D+02           0.200944D+00
            P    4   1.00
                  0.587849D+02          -0.189674D-01
                  0.918962D+01           0.264104D+00
                  0.413895D+01           0.500000D+00
                  0.184225D+01           0.319316D+00
            P    1   1.00
                  0.713862D+00           1.0000000
            P    1   1.00
                  0.274232D+00           1.0000000
            P    1   1.00
                  0.944411D-01           1.0000000
            D    7   1.00
                  0.398470D+03           0.204066D-02
                  0.118967D+03           0.175171D-01
                  0.450197D+02           0.829708D-01
                  0.190320D+02           0.236284D+00
                  0.855686D+01           0.428468D+00
                  0.382950D+01           0.500000D+00
                  0.166291D+01           0.349360D+00
            D    1   1.00
                  0.672953D+00           1.0000000
            D    1   1.00
                  0.252000D+00           1.0000000
            F    1   1.00
                  0.530000D+00           1.0000000
            ****
            -Si     0
            S    8   1.00
                  0.996133D+05           0.235546D-03
                  0.149311D+05           0.182707D-02
                  0.339820D+04           0.951425D-02
                  0.962140D+03           0.388172D-01
                  0.313430D+03           0.127328D+00
                  0.112683D+03           0.313522D+00
                  0.433372D+02           0.500000D+00
                  0.170029D+02           0.340347D+00
            S    3   1.00
                  0.884208D+02          -0.404451D-01
                  0.266756D+02          -0.178059D+00
                  0.479640D+01           0.500000D+00
            S    2   1.00
                  0.239385D+01           0.500000D+00
                  0.108333D+01           0.338016D+00
            S    1   1.00
                  0.252420D+00           1.0000000
            S    1   1.00
                  0.891210D-01           1.0000000
            P    7   1.00
                  0.709901D+03           0.123028D-02
                  0.168426D+03           0.101366D-01
                  0.539946D+02           0.511840D-01
                  0.198646D+02           0.169967D+00
                  0.801369D+01           0.370717D+00
                  0.331870D+01           0.500000D+00
                  0.136112D+01           0.344128D+00
            P    2   1.00
                  0.622158D+01          -0.166609D-01
                  0.503049D+00           0.500000D+00
            P    1   1.00
                  0.179848D+00           1.0000000
            P    1   1.00
                  0.591912D-01           1.0000000
            D    1   1.00
                  0.168000D+01           1.0000000
            D    1   1.00
                  0.380000D+00           1.0000000
            F    1   1.00
                  0.540000D+00           1.0000000
            ****
            -P     0
            S    8   1.00
                  0.116416D+06           0.230715D-03
                  0.174500D+05           0.178960D-02
                  0.397149D+04           0.932116D-02
                  0.112447D+04           0.380591D-01
                  0.366347D+03           0.125148D+00
                  0.131757D+03           0.310022D+00
                  0.506988D+02           0.500000D+00
                  0.199436D+02           0.347528D+00
            S    3   1.00
                  0.101878D+03          -0.446755D-01
                  0.308249D+02          -0.196376D+00
                  0.573688D+01           0.500000D+00
            S    2   1.00
                  0.296868D+01           0.500000D+00
                  0.135315D+01           0.355098D+00
            S    1   1.00
                  0.332196D+00           1.0000000
            S    1   1.00
                  0.116229D+00           1.0000000
            P    7   1.00
                  0.873928D+03           0.112375D-02
                  0.207298D+03           0.933330D-02
                  0.664628D+02           0.477213D-01
                  0.245665D+02           0.160733D+00
                  0.996820D+01           0.359760D+00
                  0.416536D+01           0.500000D+00
                  0.173022D+01           0.346593D+00
            P    2   1.00
                  0.772530D+01          -0.175718D-01
                  0.657252D+00           0.500000D+00
            P    1   1.00
                  0.239903D+00           1.0000000
            P    1   1.00
                  0.800988D-01           1.0000000
            D    1   1.00
                  0.189000D+01           1.0000000
            D    1   1.00
                  0.430000D+00           1.0000000
            F    1   1.00
                  0.600000D+00           1.0000000
            ****
            
 Initial command:
 /usr/local/apps/g16_b01_avx/g16/l1.exe "/wrk/irikura/Gau-12424.inp" -scrdir="/wrk/irikura/"
 Entering Link 1 = /usr/local/apps/g16_b01_avx/g16/l1.exe PID=     12426.
  
 Copyright (c) 1988-2017, Gaussian, Inc.  All Rights Reserved.
  
 This is part of the Gaussian(R) 16 program.  It is based on
 the Gaussian(R) 09 system (copyright 2009, Gaussian, Inc.),
 the Gaussian(R) 03 system (copyright 2003, Gaussian, Inc.),
 the Gaussian(R) 98 system (copyright 1998, Gaussian, Inc.),
 the Gaussian(R) 94 system (copyright 1995, Gaussian, Inc.),
 the Gaussian 92(TM) system (copyright 1992, Gaussian, Inc.),
 the Gaussian 90(TM) system (copyright 1990, Gaussian, Inc.),
 the Gaussian 88(TM) system (copyright 1988, Gaussian, Inc.),
 the Gaussian 86(TM) system (copyright 1986, Carnegie Mellon
 University), and the Gaussian 82(TM) system (copyright 1983,
 Carnegie Mellon University). Gaussian is a federally registered
 trademark of Gaussian, Inc.
  
 This software contains proprietary and confidential information,
 including trade secrets, belonging to Gaussian, Inc.
  
 This software is provided under written license and may be
 used, copied, transmitted, or stored only in accord with that
 written license.
  
 The following legend is applicable only to US Government
 contracts under FAR:
  
                    RESTRICTED RIGHTS LEGEND
  
 Use, reproduction and disclosure by the US Government is
 subject to restrictions as set forth in subparagraphs (a)
 and (c) of the Commercial Computer Software - Restricted
 Rights clause in FAR 52.227-19.
  
 Gaussian, Inc.
 340 Quinnipiac St., Bldg. 40, Wallingford CT 06492
  
  
 ---------------------------------------------------------------
 Warning -- This program may not be used in any manner that
 competes with the business of Gaussian, Inc. or will provide
 assistance to any competitor of Gaussian, Inc.  The licensee
 of this program is prohibited from giving any competitor of
 Gaussian, Inc. access to this program.  By using this program,
 the user acknowledges that Gaussian, Inc. is engaged in the
 business of creating and licensing software in the field of
 computational chemistry and represents and warrants to the
 licensee that it is not a competitor of Gaussian, Inc. and that
 it will not use this program in any manner prohibited above.
 ---------------------------------------------------------------
  

 Cite this work as:
 Gaussian 16, Revision B.01,
 M. J. Frisch, G. W. Trucks, H. B. Schlegel, G. E. Scuseria, 
 M. A. Robb, J. R. Cheeseman, G. Scalmani, V. Barone, 
 G. A. Petersson, H. Nakatsuji, X. Li, M. Caricato, A. V. Marenich, 
 J. Bloino, B. G. Janesko, R. Gomperts, B. Mennucci, H. P. Hratchian, 
 J. V. Ortiz, A. F. Izmaylov, J. L. Sonnenberg, D. Williams-Young, 
 F. Ding, F. Lipparini, F. Egidi, J. Goings, B. Peng, A. Petrone, 
 T. Henderson, D. Ranasinghe, V. G. Zakrzewski, J. Gao, N. Rega, 
 G. Zheng, W. Liang, M. Hada, M. Ehara, K. Toyota, R. Fukuda, 
 J. Hasegawa, M. Ishida, T. Nakajima, Y. Honda, O. Kitao, H. Nakai, 
 T. Vreven, K. Throssell, J. A. Montgomery, Jr., J. E. Peralta, 
 F. Ogliaro, M. J. Bearpark, J. J. Heyd, E. N. Brothers, K. N. Kudin, 
 V. N. Staroverov, T. A. Keith, R. Kobayashi, J. Normand, 
 K. Raghavachari, A. P. Rendell, J. C. Burant, S. S. Iyengar, 
 J. Tomasi, M. Cossi, J. M. Millam, M. Klene, C. Adamo, R. Cammi, 
 J. W. Ochterski, R. L. Martin, K. Morokuma, O. Farkas, 
 J. B. Foresman, and D. J. Fox, Gaussian, Inc., Wallingford CT, 2016.
 
 ******************************************
 Gaussian 16:  ES64L-G16RevB.01 20-Dec-2017
                17-Jun-2022 
 ******************************************
 %mem=1000mw
 %nprocs=12
 Will use up to   12 processors via shared memory.
 --------------------
 # b3lyp/gen opt freq
 --------------------
 1/18=20,19=15,26=3,38=1/1,3;
 2/9=110,12=2,17=6,18=5,40=1/2;
 3/5=7,11=2,25=1,30=1,71=1,74=-5/1,2,3;
 4//1;
 5/5=2,38=5/2;
 6/7=2,8=2,9=2,10=2,28=1/1;
 7//1,2,3,16;
 1/18=20,19=15,26=3/3(2);
 2/9=110/2;
 99//99;
 2/9=110/2;
 3/5=7,6=1,11=2,25=1,30=1,71=1,74=-5,82=7/1,2,3;
 4/5=5,16=3,69=1/1;
 5/5=2,38=5/2;
 7//1,2,3,16;
 1/18=20,19=15,26=3/3(-5);
 2/9=110/2;
 6/7=2,8=2,9=2,10=2,19=2,28=1/1;
 99/9=1/99;
 -----------------------
 biphenyl, B3LYP/pcseg-2
 -----------------------
 Symbolic Z-matrix:
 Charge =  0 Multiplicity = 1
 C                     0.        0.        0.74206 
 C                     0.        0.       -0.74206 
 C                    -0.419     1.12579   1.46206 
 C                     0.419    -1.12579   1.46206 
 C                    -0.419    -1.12579  -1.46206 
 C                     0.419     1.12579  -1.46206 
 C                    -0.41941   1.12597   2.85187 
 C                     0.41941  -1.12597   2.85187 
 C                    -0.41941  -1.12597  -2.85187 
 C                     0.41941   1.12597  -2.85187 
 C                     0.        0.        3.55341 
 C                     0.        0.       -3.55341 
 H                    -0.77014   1.99984   0.92742 
 H                     0.77014  -1.99984   0.92742 
 H                    -0.77014  -1.99984  -0.92742 
 H                     0.77014   1.99984  -0.92742 
 H                    -0.75635   2.00507   3.38806 
 H                     0.75635  -2.00507   3.38806 
 H                    -0.75635  -2.00507  -3.38806 
 H                     0.75635   2.00507  -3.38806 
 H                     0.        0.        4.6365 
 H                     0.        0.       -4.6365 
 

 GradGradGradGradGradGradGradGradGradGradGradGradGradGradGradGradGradGrad
 Berny optimization.
 Initialization pass.
                           ----------------------------
                           !    Initial Parameters    !
                           ! (Angstroms and Degrees)  !
 --------------------------                            --------------------------
 ! Name  Definition              Value          Derivative Info.                !
 --------------------------------------------------------------------------------
 ! R1    R(1,2)                  1.4841         estimate D2E/DX2                !
 ! R2    R(1,3)                  1.4005         estimate D2E/DX2                !
 ! R3    R(1,4)                  1.4005         estimate D2E/DX2                !
 ! R4    R(2,5)                  1.4005         estimate D2E/DX2                !
 ! R5    R(2,6)                  1.4005         estimate D2E/DX2                !
 ! R6    R(3,7)                  1.3898         estimate D2E/DX2                !
 ! R7    R(3,13)                 1.0831         estimate D2E/DX2                !
 ! R8    R(4,8)                  1.3898         estimate D2E/DX2                !
 ! R9    R(4,14)                 1.0831         estimate D2E/DX2                !
 ! R10   R(5,9)                  1.3898         estimate D2E/DX2                !
 ! R11   R(5,15)                 1.0831         estimate D2E/DX2                !
 ! R12   R(6,10)                 1.3898         estimate D2E/DX2                !
 ! R13   R(6,16)                 1.0831         estimate D2E/DX2                !
 ! R14   R(7,11)                 1.3914         estimate D2E/DX2                !
 ! R15   R(7,17)                 1.0834         estimate D2E/DX2                !
 ! R16   R(8,11)                 1.3914         estimate D2E/DX2                !
 ! R17   R(8,18)                 1.0834         estimate D2E/DX2                !
 ! R18   R(9,12)                 1.3914         estimate D2E/DX2                !
 ! R19   R(9,19)                 1.0834         estimate D2E/DX2                !
 ! R20   R(10,12)                1.3914         estimate D2E/DX2                !
 ! R21   R(10,20)                1.0834         estimate D2E/DX2                !
 ! R22   R(11,21)                1.0831         estimate D2E/DX2                !
 ! R23   R(12,22)                1.0831         estimate D2E/DX2                !
 ! A1    A(2,1,3)              120.9377         estimate D2E/DX2                !
 ! A2    A(2,1,4)              120.9377         estimate D2E/DX2                !
 ! A3    A(3,1,4)              118.1247         estimate D2E/DX2                !
 ! A4    A(1,2,5)              120.9377         estimate D2E/DX2                !
 ! A5    A(1,2,6)              120.9377         estimate D2E/DX2                !
 ! A6    A(5,2,6)              118.1247         estimate D2E/DX2                !
 ! A7    A(1,3,7)              120.9504         estimate D2E/DX2                !
 ! A8    A(1,3,13)             119.4676         estimate D2E/DX2                !
 ! A9    A(7,3,13)             119.5655         estimate D2E/DX2                !
 ! A10   A(1,4,8)              120.9504         estimate D2E/DX2                !
 ! A11   A(1,4,14)             119.4676         estimate D2E/DX2                !
 ! A12   A(8,4,14)             119.5655         estimate D2E/DX2                !
 ! A13   A(2,5,9)              120.9504         estimate D2E/DX2                !
 ! A14   A(2,5,15)             119.4676         estimate D2E/DX2                !
 ! A15   A(9,5,15)             119.5655         estimate D2E/DX2                !
 ! A16   A(2,6,10)             120.9504         estimate D2E/DX2                !
 ! A17   A(2,6,16)             119.4676         estimate D2E/DX2                !
 ! A18   A(10,6,16)            119.5655         estimate D2E/DX2                !
 ! A19   A(3,7,11)             120.2662         estimate D2E/DX2                !
 ! A20   A(3,7,17)             119.6756         estimate D2E/DX2                !
 ! A21   A(11,7,17)            120.0561         estimate D2E/DX2                !
 ! A22   A(4,8,11)             120.2662         estimate D2E/DX2                !
 ! A23   A(4,8,18)             119.6756         estimate D2E/DX2                !
 ! A24   A(11,8,18)            120.0561         estimate D2E/DX2                !
 ! A25   A(5,9,12)             120.2662         estimate D2E/DX2                !
 ! A26   A(5,9,19)             119.6756         estimate D2E/DX2                !
 ! A27   A(12,9,19)            120.0561         estimate D2E/DX2                !
 ! A28   A(6,10,12)            120.2662         estimate D2E/DX2                !
 ! A29   A(6,10,20)            119.6756         estimate D2E/DX2                !
 ! A30   A(12,10,20)           120.0561         estimate D2E/DX2                !
 ! A31   A(7,11,8)             119.442          estimate D2E/DX2                !
 ! A32   A(7,11,21)            120.279          estimate D2E/DX2                !
 ! A33   A(8,11,21)            120.279          estimate D2E/DX2                !
 ! A34   A(9,12,10)            119.442          estimate D2E/DX2                !
 ! A35   A(9,12,22)            120.279          estimate D2E/DX2                !
 ! A36   A(10,12,22)           120.279          estimate D2E/DX2                !
 ! D1    D(3,1,2,5)           -139.1717         estimate D2E/DX2                !
 ! D2    D(3,1,2,6)             40.8283         estimate D2E/DX2                !
 ! D3    D(4,1,2,5)             40.8283         estimate D2E/DX2                !
 ! D4    D(4,1,2,6)           -139.1717         estimate D2E/DX2                !
 ! D5    D(2,1,3,7)            179.9844         estimate D2E/DX2                !
 ! D6    D(2,1,3,13)             1.4721         estimate D2E/DX2                !
 ! D7    D(4,1,3,7)             -0.0156         estimate D2E/DX2                !
 ! D8    D(4,1,3,13)          -178.5279         estimate D2E/DX2                !
 ! D9    D(2,1,4,8)            179.9844         estimate D2E/DX2                !
 ! D10   D(2,1,4,14)             1.4721         estimate D2E/DX2                !
 ! D11   D(3,1,4,8)             -0.0156         estimate D2E/DX2                !
 ! D12   D(3,1,4,14)          -178.5279         estimate D2E/DX2                !
 ! D13   D(1,2,5,9)            179.9844         estimate D2E/DX2                !
 ! D14   D(1,2,5,15)             1.4721         estimate D2E/DX2                !
 ! D15   D(6,2,5,9)             -0.0156         estimate D2E/DX2                !
 ! D16   D(6,2,5,15)          -178.5279         estimate D2E/DX2                !
 ! D17   D(1,2,6,10)           179.9844         estimate D2E/DX2                !
 ! D18   D(1,2,6,16)             1.4721         estimate D2E/DX2                !
 ! D19   D(5,2,6,10)            -0.0156         estimate D2E/DX2                !
 ! D20   D(5,2,6,16)          -178.5279         estimate D2E/DX2                !
 ! D21   D(1,3,7,11)             0.0313         estimate D2E/DX2                !
 ! D22   D(1,3,7,17)          -179.4426         estimate D2E/DX2                !
 ! D23   D(13,3,7,11)          178.5422         estimate D2E/DX2                !
 ! D24   D(13,3,7,17)           -0.9317         estimate D2E/DX2                !
 ! D25   D(1,4,8,11)             0.0313         estimate D2E/DX2                !
 ! D26   D(1,4,8,18)          -179.4426         estimate D2E/DX2                !
 ! D27   D(14,4,8,11)          178.5422         estimate D2E/DX2                !
 ! D28   D(14,4,8,18)           -0.9317         estimate D2E/DX2                !
 ! D29   D(2,5,9,12)             0.0313         estimate D2E/DX2                !
 ! D30   D(2,5,9,19)          -179.4426         estimate D2E/DX2                !
 ! D31   D(15,5,9,12)          178.5422         estimate D2E/DX2                !
 ! D32   D(15,5,9,19)           -0.9317         estimate D2E/DX2                !
 ! D33   D(2,6,10,12)            0.0313         estimate D2E/DX2                !
 ! D34   D(2,6,10,20)         -179.4426         estimate D2E/DX2                !
 ! D35   D(16,6,10,12)         178.5422         estimate D2E/DX2                !
 ! D36   D(16,6,10,20)          -0.9317         estimate D2E/DX2                !
 ! D37   D(3,7,11,8)            -0.0155         estimate D2E/DX2                !
 ! D38   D(3,7,11,21)          179.9845         estimate D2E/DX2                !
 ! D39   D(17,7,11,8)          179.4564         estimate D2E/DX2                !
 ! D40   D(17,7,11,21)          -0.5436         estimate D2E/DX2                !
 ! D41   D(4,8,11,7)            -0.0155         estimate D2E/DX2                !
 ! D42   D(4,8,11,21)          179.9845         estimate D2E/DX2                !
 ! D43   D(18,8,11,7)          179.4564         estimate D2E/DX2                !
 ! D44   D(18,8,11,21)          -0.5436         estimate D2E/DX2                !
 ! D45   D(5,9,12,10)           -0.0155         estimate D2E/DX2                !
 ! D46   D(5,9,12,22)          179.9845         estimate D2E/DX2                !
 ! D47   D(19,9,12,10)         179.4564         estimate D2E/DX2                !
 ! D48   D(19,9,12,22)          -0.5436         estimate D2E/DX2                !
 ! D49   D(6,10,12,9)           -0.0155         estimate D2E/DX2                !
 ! D50   D(6,10,12,22)         179.9845         estimate D2E/DX2                !
 ! D51   D(20,10,12,9)         179.4564         estimate D2E/DX2                !
 ! D52   D(20,10,12,22)         -0.5436         estimate D2E/DX2                !
 --------------------------------------------------------------------------------
 Trust Radius=3.00D-01 FncErr=1.00D-07 GrdErr=1.00D-06 EigMax=2.50D+02 EigMin=1.00D-04
 Number of steps in this run=    121 maximum allowed number of steps=    132.
 GradGradGradGradGradGradGradGradGradGradGradGradGradGradGradGradGradGrad

                          Input orientation:                          
 ---------------------------------------------------------------------
 Center     Atomic      Atomic             Coordinates (Angstroms)
 Number     Number       Type             X           Y           Z
 ---------------------------------------------------------------------
      1          6           0        0.000000    0.000000    0.742060
      2          6           0        0.000000    0.000000   -0.742060
      3          6           0       -0.418995    1.125794    1.462058
      4          6           0        0.418995   -1.125794    1.462058
      5          6           0       -0.418995   -1.125794   -1.462058
      6          6           0        0.418995    1.125794   -1.462058
      7          6           0       -0.419407    1.125970    2.851872
      8          6           0        0.419407   -1.125970    2.851872
      9          6           0       -0.419407   -1.125970   -2.851872
     10          6           0        0.419407    1.125970   -2.851872
     11          6           0        0.000000    0.000000    3.553407
     12          6           0        0.000000    0.000000   -3.553407
     13          1           0       -0.770144    1.999842    0.927424
     14          1           0        0.770144   -1.999842    0.927424
     15          1           0       -0.770144   -1.999842   -0.927424
     16          1           0        0.770144    1.999842   -0.927424
     17          1           0       -0.756352    2.005070    3.388060
     18          1           0        0.756352   -2.005070    3.388060
     19          1           0       -0.756352   -2.005070   -3.388060
     20          1           0        0.756352    2.005070   -3.388060
     21          1           0        0.000000    0.000000    4.636501
     22          1           0        0.000000    0.000000   -4.636501
 ---------------------------------------------------------------------
                    Distance matrix (angstroms):
                    1          2          3          4          5
     1  C    0.000000
     2  C    1.484120   0.000000
     3  C    1.400488   2.510200   0.000000
     4  C    1.400488   2.510200   2.402473   0.000000
     5  C    2.510200   1.400488   3.690542   3.041822   0.000000
     6  C    2.510200   1.400488   3.041822   3.690542   2.402473
     7  C    2.427966   3.789467   1.389814   2.775778   4.866255
     8  C    2.427966   3.789467   2.775778   1.389814   4.394646
     9  C    3.789467   2.427966   4.866255   4.394646   1.389814
    10  C    3.789467   2.427966   4.394646   4.866255   2.775778
    11  C    2.811347   4.295467   2.411786   2.411786   5.157311
    12  C    4.295467   2.811347   5.157311   5.157311   2.411786
    13  H    2.151011   2.716554   1.083097   3.386663   3.950004
    14  H    2.151011   2.716554   3.386663   1.083097   2.808493
    15  H    2.716554   2.151011   3.950004   2.808493   1.083097
    16  H    2.716554   2.151011   2.808493   3.950004   3.386663
    17  H    3.404951   4.652985   2.143926   3.859175   5.782712
    18  H    3.404951   4.652985   3.859175   2.143926   5.067367
    19  H    4.652985   3.404951   5.782712   5.067367   2.143926
    20  H    4.652985   3.404951   5.067367   5.782712   3.859175
    21  H    3.894441   5.378561   3.394121   3.394121   6.215737
    22  H    5.378561   3.894441   6.215737   6.215737   3.394121
                    6          7          8          9         10
     6  C    0.000000
     7  C    4.394646   0.000000
     8  C    4.866255   2.403090   0.000000
     9  C    2.775778   6.132204   5.765094   0.000000
    10  C    1.389814   5.765094   6.132204   2.403090   0.000000
    11  C    5.157311   1.391353   1.391353   6.517002   6.517002
    12  C    2.411786   6.517002   6.517002   1.391353   1.391353
    13  H    2.808493   2.142468   3.858657   4.916990   4.057310
    14  H    3.950004   3.858657   2.142468   4.057310   4.916990
    15  H    3.386663   4.916990   4.057310   2.142468   3.858657
    16  H    1.083097   4.057310   4.916990   3.858657   2.142468
    17  H    5.067367   1.083442   3.387229   6.989542   6.410302
    18  H    5.782712   3.387229   1.083442   6.410302   6.989542
    19  H    3.859175   6.989542   6.410302   1.083442   3.387229
    20  H    2.143926   6.410302   6.989542   3.387229   1.083442
    21  H    6.215737   2.151421   2.151421   7.584157   7.584157
    22  H    3.394121   7.584157   7.584157   2.151421   2.151421
                   11         12         13         14         15
    11  C    0.000000
    12  C    7.106814   0.000000
    13  H    3.389436   4.966924   0.000000
    14  H    3.389436   4.966924   4.286019   0.000000
    15  H    4.966924   3.389436   4.408847   2.411006   0.000000
    16  H    4.966924   3.389436   2.411006   4.408847   4.286019
    17  H    2.149352   7.264732   2.460680   4.942089   5.887522
    18  H    2.149352   7.264732   4.942089   2.460680   4.577512
    19  H    7.264732   2.149352   5.887522   4.577512   2.460680
    20  H    7.264732   2.149352   4.577512   5.887522   4.942089
    21  H    1.083094   8.189908   4.283660   4.283660   5.962361
    22  H    8.189908   1.083094   5.962361   5.962361   4.283660
                   16         17         18         19         20
    16  H    0.000000
    17  H    4.577512   0.000000
    18  H    5.887522   4.285965   0.000000
    19  H    4.942089   7.873819   6.942916   0.000000
    20  H    2.460680   6.942916   7.873819   4.285965   0.000000
    21  H    5.962361   2.480117   2.480117   8.305778   8.305778
    22  H    4.283660   8.305778   8.305778   2.480117   2.480117
                   21         22
    21  H    0.000000
    22  H    9.273002   0.000000
 Stoichiometry    C12H10
 Framework group  D2[C2(HCC.CCH),X(C8H8)]
 Deg. of freedom    15
 Full point group                 D2      NOp   4
 Largest Abelian subgroup         D2      NOp   4
 Largest concise Abelian subgroup D2      NOp   4
                         Standard orientation:                         
 ---------------------------------------------------------------------
 Center     Atomic      Atomic             Coordinates (Angstroms)
 Number     Number       Type             X           Y           Z
 ---------------------------------------------------------------------
      1          6           0        0.000000    0.000000    0.742060
      2          6           0        0.000000    0.000000   -0.742060
      3          6           0       -0.418995    1.125794    1.462058
      4          6           0        0.418995   -1.125794    1.462058
      5          6           0       -0.418995   -1.125794   -1.462058
      6          6           0        0.418995    1.125794   -1.462058
      7          6           0       -0.419407    1.125970    2.851872
      8          6           0        0.419407   -1.125970    2.851872
      9          6           0       -0.419407   -1.125970   -2.851872
     10          6           0        0.419407    1.125970   -2.851872
     11          6           0        0.000000    0.000000    3.553407
     12          6           0        0.000000    0.000000   -3.553407
     13          1           0       -0.770144    1.999842    0.927424
     14          1           0        0.770144   -1.999842    0.927424
     15          1           0       -0.770144   -1.999842   -0.927424
     16          1           0        0.770144    1.999842   -0.927424
     17          1           0       -0.756352    2.005070    3.388060
     18          1           0        0.756352   -2.005070    3.388060
     19          1           0       -0.756352   -2.005070   -3.388060
     20          1           0        0.756352    2.005070   -3.388060
     21          1           0        0.000000    0.000000    4.636501
     22          1           0        0.000000    0.000000   -4.636501
 ---------------------------------------------------------------------
 Rotational constants (GHZ):           2.8782164           0.5470093           0.4784210
 General basis read from cards:  (5D, 7F)
 There are   147 symmetry adapted cartesian basis functions of A   symmetry.
 There are   147 symmetry adapted cartesian basis functions of B1  symmetry.
 There are   138 symmetry adapted cartesian basis functions of B2  symmetry.
 There are   138 symmetry adapted cartesian basis functions of B3  symmetry.
 There are   128 symmetry adapted basis functions of A   symmetry.
 There are   128 symmetry adapted basis functions of B1  symmetry.
 There are   122 symmetry adapted basis functions of B2  symmetry.
 There are   122 symmetry adapted basis functions of B3  symmetry.
   500 basis functions,   792 primitive gaussians,   570 cartesian basis functions
    41 alpha electrons       41 beta electrons
       nuclear repulsion energy       600.4269273437 Hartrees.
 NAtoms=   22 NActive=   22 NUniq=    7 SFac= 4.00D+00 NAtFMM=   60 NAOKFM=F Big=F
 Integral buffers will be    131072 words long.
 Raffenetti 2 integral format.
 Two-electron integral symmetry is turned on.
 One-electron integrals computed using PRISM.
 NBasis=   500 RedAO= T EigKep=  1.71D-05  NBF=   128   128   122   122
 NBsUse=   500 1.00D-06 EigRej= -1.00D+00 NBFU=   128   128   122   122
 ExpMin= 7.42D-02 ExpMax= 7.32D+03 ExpMxC= 2.50D+02 IAcc=3 IRadAn=         5 AccDes= 0.00D+00
 Harris functional with IExCor=  402 and IRadAn=       5 diagonalized for initial guess.
 HarFok:  IExCor=  402 AccDes= 0.00D+00 IRadAn=         5 IDoV= 1 UseB2=F ITyADJ=14
 ICtDFT=  3500011 ScaDFX=  1.000000  1.000000  1.000000  1.000000
 FoFCou: FMM=F IPFlag=           0 FMFlag=      100000 FMFlg1=           0
         NFxFlg=           0 DoJE=T BraDBF=F KetDBF=T FulRan=T
         wScrn=  0.000000 ICntrl=       500 IOpCl=  0 I1Cent=   200000004 NGrid=           0
         NMat0=    1 NMatS0=      1 NMatT0=    0 NMatD0=    1 NMtDS0=    0 NMtDT0=    0
 Petite list used in FoFCou.
 Initial guess orbital symmetries:
       Occupied  (B1) (A) (B2) (B3) (B1) (A) (B1) (A) (B3) (B2)
                 (A) (B1) (A) (B1) (A) (B2) (B3) (B1) (A) (B2)
                 (B3) (B1) (A) (B1) (B2) (B3) (A) (B1) (A) (B2)
                 (B3) (B1) (B3) (B2) (A) (B2) (B3) (B3) (B1) (A)
                 (B2)
       Virtual   (B3) (B1) (A) (B2) (A) (B1) (B3) (B2) (A) (B2)
                 (B3) (B1) (B2) (A) (B1) (B3) (A) (B1) (B1) (B3)
                 (A) (B2) (B2) (B2) (B1) (B3) (A) (B3) (B2) (A)
                 (B1) (B3) (B1) (A) (B2) (A) (B3) (B1) (B2) (B3)
                 (A) (B1) (B2) (B1) (A) (B3) (B2) (A) (B3) (B2)
                 (A) (B1) (B1) (B2) (B3) (B3) (B2) (B1) (A) (B1)
                 (B3) (A) (B2) (B3) (A) (B1) (B3) (B1) (B2) (A)
                 (B3) (B2) (B1) (B3) (B2) (B1) (A) (B3) (B1) (B2)
                 (A) (A) (B3) (B2) (B1) (B2) (B3) (A) (A) (B1)
                 (B1) (A) (B1) (A) (B2) (B3) (A) (B1) (B1) (B3)
                 (B2) (B3) (A) (B1) (B3) (B2) (A) (B1) (A) (B2)
                 (B3) (A) (B2) (B1) (B2) (B2) (B3) (A) (B3) (B1)
                 (B1) (B2) (B3) (B3) (B3) (A) (B2) (B1) (B2) (B1)
                 (B2) (A) (B3) (A) (B1) (A) (B2) (B1) (B3) (B3)
                 (B2) (B2) (A) (B1) (B3) (A) (B2) (B3) (B1) (B3)
                 (B2) (A) (B1) (B1) (A) (B2) (B3) (B3) (B2) (A)
                 (B3) (B1) (B2) (B1) (A) (B2) (B3) (A) (B1) (B3)
                 (B1) (A) (B2) (B3) (B2) (A) (A) (B1) (B1) (B2)
                 (A) (B3) (B1) (A) (B2) (A) (B1) (B3) (B1) (A)
                 (B2) (B3) (A) (B3) (B1) (B2) (B3) (B2) (B3) (A)
                 (B1) (B2) (B2) (B1) (A) (B3) (A) (B1) (B3) (B2)
                 (B1) (A) (B2) (B1) (B3) (B2) (A) (B1) (B3) (A)
                 (B1) (B2) (B3) (A) (B3) (B2) (A) (B1) (B3) (B2)
                 (B1) (B3) (A) (B1) (B2) (A) (B2) (B3) (A) (B1)
                 (B2) (B3) (B1) (B2) (B3) (A) (B2) (B3) (B1) (A)
                 (B3) (B1) (A) (B3) (B2) (B2) (B1) (B2) (B3) (A)
                 (A) (B1) (B2) (A) (B1) (B3) (B3) (B1) (A) (A)
                 (B1) (B2) (A) (B1) (A) (B2) (B3) (B2) (B1) (B3)
                 (B1) (B2) (A) (B1) (B3) (B3) (A) (B1) (A) (B3)
                 (B1) (B2) (A) (B2) (B1) (A) (B3) (B2) (A) (B1)
                 (B3) (B2) (B2) (B3) (A) (A) (B1) (B3) (B1) (B2)
                 (B3) (A) (B1) (B2) (B3) (B2) (A) (B1) (B1) (B3)
                 (B2) (A) (B1) (A) (B3) (B1) (A) (B2) (B1) (B3)
                 (B1) (B3) (B2) (A) (B2) (B1) (A) (A) (B3) (B2)
                 (B3) (B2) (A) (B3) (B2) (B1) (B1) (B3) (A) (B2)
                 (A) (B1) (B3) (B1) (B2) (B3) (B1) (B2) (B3) (A)
                 (B2) (B1) (B2) (B3) (A) (B1) (A) (B3) (B2) (A)
                 (B1) (B1) (A) (B3) (B2) (B2) (B3) (B2) (A) (B1)
                 (B3) (A) (B2) (B3) (B2) (B1) (B3) (B1) (A) (B2)
                 (B3) (B2) (B3) (B1) (B2) (A) (A) (B3) (B3) (B2)
                 (A) (B3) (B1) (B2) (B1) (A) (B1) (A) (B1) (A)
                 (B2) (B1) (B3) (A) (B3) (B1) (B2) (A) (B2) (B3)
                 (B2) (A) (B1) (B1) (B3) (B2) (A) (B1) (A) (B3)
                 (B1) (B2) (B3) (B3) (B2) (B2) (A) (A) (B3) (B1)
                 (B3) (B2) (A) (B1) (B1) (B2) (B1) (A) (B3) (A)
                 (B1) (A) (B3) (B2) (B2) (B3) (B1) (A) (B1)
 The electronic state of the initial guess is 1-A.
 Requested convergence on RMS density matrix=1.00D-08 within 128 cycles.
 Requested convergence on MAX density matrix=1.00D-06.
 Requested convergence on             energy=1.00D-06.
 No special actions if energy rises.
 Integral accuracy reduced to 1.0D-05 until final iterations.
 Initial convergence to 1.0D-05 achieved.  Increase integral accuracy.
 SCF Done:  E(RB3LYP) =  -463.478499276     A.U. after   13 cycles
            NFock= 13  Conv=0.39D-08     -V/T= 2.0040

 **********************************************************************

            Population analysis using the SCF Density.

 **********************************************************************

 Orbital symmetries:
       Occupied  (A) (B1) (B1) (A) (B3) (B2) (B1) (A) (B3) (B2)
                 (B1) (A) (A) (B1) (A) (B2) (B3) (B1) (A) (B2)
                 (B3) (B1) (A) (B1) (A) (B2) (B1) (B3) (B2) (A)
                 (B3) (B3) (B1) (B2) (B2) (A) (B3) (B3) (B1) (A)
                 (B2)
       Virtual   (B3) (B1) (A) (B2) (A) (B1) (B2) (A) (B3) (B1)
                 (B2) (A) (B3) (B1) (A) (B3) (B2) (B1) (B3) (B2)
                 (B2) (B3) (B1) (A) (A) (B3) (B1) (B2) (B3) (A)
                 (B1) (B2) (B2) (A) (B1) (B2) (A) (B1) (A) (B3)
                 (B1) (B3) (B2) (B3) (A) (B2) (B1) (B1) (B3) (A)
                 (B2) (B1) (B3) (B3) (B2) (A) (B1) (B2) (A) (B3)
                 (B1) (B2) (A) (B3) (A) (B3) (B1) (B1) (B2) (A)
                 (B3) (B1) (B2) (B3) (B1) (B2) (A) (B2) (B3) (A)
                 (B3) (B2) (B1) (A) (B1) (B2) (A) (B3) (B1) (A)
                 (B1) (A) (B2) (B3) (A) (B1) (A) (B1) (B1) (B3)
                 (B2) (B3) (A) (B1) (B2) (B3) (A) (B1) (A) (B2)
                 (B3) (A) (B2) (B1) (B2) (B3) (B1) (B2) (B3) (B1)
                 (B2) (A) (B3) (B3) (A) (B2) (B3) (B1) (B1) (B2)
                 (A) (A) (B1) (B3) (B2) (B2) (A) (B1) (B3) (B2)
                 (B3) (A) (B2) (B3) (A) (B1) (B2) (B3) (B1) (B3)
                 (B2) (A) (B1) (A) (B1) (B2) (B3) (B3) (B2) (A)
                 (B3) (B1) (B2) (B1) (A) (B3) (B2) (A) (B1) (B3)
                 (B1) (A) (B2) (B3) (A) (B2) (B1) (A) (B1) (B2)
                 (A) (B3) (B1) (A) (B2) (A) (B1) (B1) (A) (B3)
                 (B3) (B2) (A) (B3) (B3) (B3) (B2) (B1) (B2) (B1)
                 (A) (B2) (B2) (B1) (A) (B3) (A) (B1) (B3) (B1)
                 (B2) (B2) (A) (B1) (B3) (B2) (A) (B1) (B3) (A)
                 (B1) (B2) (B3) (A) (B3) (B2) (A) (B1) (B3) (B2)
                 (B1) (B3) (A) (B1) (A) (B2) (B2) (B3) (A) (B1)
                 (B2) (B1) (B3) (B3) (B2) (A) (B2) (B1) (B3) (A)
                 (B3) (B1) (A) (B3) (B2) (B2) (B1) (B2) (B3) (A)
                 (A) (B1) (B2) (A) (B3) (B1) (B3) (A) (B1) (A)
                 (B1) (B2) (A) (B1) (B2) (A) (B3) (B2) (B1) (B3)
                 (A) (B1) (B1) (B2) (B3) (A) (B1) (B3) (A) (B1)
                 (B3) (B2) (A) (B2) (B1) (A) (B3) (B2) (A) (B3)
                 (B1) (B2) (B2) (A) (B3) (B3) (B1) (A) (B1) (B2)
                 (A) (B3) (B1) (B2) (B2) (B3) (B1) (B3) (A) (B1)
                 (A) (B2) (B1) (A) (B2) (A) (B1) (B3) (B1) (B3)
                 (B2) (B3) (B1) (A) (B2) (A) (B1) (A) (B3) (B2)
                 (B2) (B3) (A) (B3) (B2) (B1) (B1) (A) (B3) (B2)
                 (A) (B1) (B2) (B3) (B1) (B3) (B2) (B1) (B3) (A)
                 (B2) (B3) (B2) (B1) (A) (B1) (B2) (B3) (A) (A)
                 (B1) (B1) (B3) (A) (B2) (B2) (B3) (A) (B2) (B1)
                 (B3) (A) (B2) (B3) (B2) (B3) (B1) (A) (B1) (B2)
                 (B3) (B2) (B1) (B3) (A) (B2) (B3) (A) (B2) (B3)
                 (A) (B3) (B1) (B2) (A) (B1) (B1) (A) (A) (B1)
                 (B1) (B3) (B2) (A) (B2) (B3) (B1) (B2) (A) (A)
                 (B3) (B2) (B1) (B1) (B3) (B2) (A) (B1) (A) (B3)
                 (B1) (B2) (B3) (B2) (B3) (A) (B2) (A) (B3) (B1)
                 (B3) (B2) (A) (B1) (B1) (B2) (B1) (A) (B3) (A)
                 (B1) (A) (B3) (B2) (B2) (B3) (B1) (A) (B1)
 The electronic state is 1-A.
 Alpha  occ. eigenvalues --  -10.18877 -10.18846 -10.17838 -10.17838 -10.17826
 Alpha  occ. eigenvalues --  -10.17826 -10.17745 -10.17745 -10.17741 -10.17741
 Alpha  occ. eigenvalues --  -10.17696 -10.17696  -0.87467  -0.85276  -0.78248
 Alpha  occ. eigenvalues --   -0.75523  -0.74802  -0.72590  -0.62947  -0.62329
 Alpha  occ. eigenvalues --   -0.59697  -0.58318  -0.53829  -0.50514  -0.47426
 Alpha  occ. eigenvalues --   -0.47065  -0.44649  -0.44477  -0.43022  -0.42640
 Alpha  occ. eigenvalues --   -0.42350  -0.38444  -0.37243  -0.36742  -0.35698
 Alpha  occ. eigenvalues --   -0.34330  -0.34190  -0.28350  -0.26181  -0.26180
 Alpha  occ. eigenvalues --   -0.23601
 Alpha virt. eigenvalues --   -0.04063  -0.01956  -0.01723   0.01008   0.01417
 Alpha virt. eigenvalues --    0.02351   0.03369   0.04584   0.04848   0.06630
 Alpha virt. eigenvalues --    0.07276   0.08598   0.08707   0.09639   0.12529
 Alpha virt. eigenvalues --    0.12777   0.14203   0.14436   0.15939   0.17099
 Alpha virt. eigenvalues --    0.18149   0.18346   0.18352   0.18477   0.19316
 Alpha virt. eigenvalues --    0.20232   0.20377   0.20449   0.21964   0.22040
 Alpha virt. eigenvalues --    0.22988   0.24874   0.26018   0.26207   0.27619
 Alpha virt. eigenvalues --    0.27660   0.28871   0.29047   0.29230   0.29268
 Alpha virt. eigenvalues --    0.29933   0.30757   0.30909   0.31342   0.31425
 Alpha virt. eigenvalues --    0.31777   0.32013   0.34662   0.34856   0.35105
 Alpha virt. eigenvalues --    0.35155   0.35566   0.36183   0.36288   0.36578
 Alpha virt. eigenvalues --    0.37279   0.38377   0.38526   0.39736   0.41711
 Alpha virt. eigenvalues --    0.41845   0.44041   0.44799   0.45721   0.46483
 Alpha virt. eigenvalues --    0.47333   0.47525   0.48248   0.50180   0.50358
 Alpha virt. eigenvalues --    0.54052   0.56531   0.57188   0.58592   0.59182
 Alpha virt. eigenvalues --    0.59457   0.61780   0.63178   0.63937   0.65237
 Alpha virt. eigenvalues --    0.65880   0.66409   0.66970   0.68905   0.70008
 Alpha virt. eigenvalues --    0.72221   0.72953   0.73500   0.74783   0.75450
 Alpha virt. eigenvalues --    0.77655   0.82455   0.83099   0.83871   0.84772
 Alpha virt. eigenvalues --    0.85252   0.86182   0.86485   0.89197   0.89678
 Alpha virt. eigenvalues --    0.92182   0.93399   0.97709   0.98379   0.99152
 Alpha virt. eigenvalues --    0.99265   0.99644   1.01698   1.03517   1.05170
 Alpha virt. eigenvalues --    1.05866   1.06048   1.06879   1.09256   1.09680
 Alpha virt. eigenvalues --    1.10314   1.12221   1.12266   1.12783   1.13936
 Alpha virt. eigenvalues --    1.14042   1.14316   1.15166   1.15919   1.17843
 Alpha virt. eigenvalues --    1.18924   1.19977   1.21007   1.22311   1.23196
 Alpha virt. eigenvalues --    1.23434   1.26242   1.26584   1.26667   1.26732
 Alpha virt. eigenvalues --    1.28713   1.30145   1.31915   1.32942   1.33633
 Alpha virt. eigenvalues --    1.33903   1.34747   1.36649   1.37146   1.38012
 Alpha virt. eigenvalues --    1.38933   1.40073   1.40377   1.41138   1.43050
 Alpha virt. eigenvalues --    1.44148   1.46660   1.47800   1.49477   1.49507
 Alpha virt. eigenvalues --    1.50865   1.51670   1.55212   1.56949   1.57173
 Alpha virt. eigenvalues --    1.58048   1.58509   1.59783   1.60535   1.61580
 Alpha virt. eigenvalues --    1.62290   1.63469   1.63619   1.65091   1.66323
 Alpha virt. eigenvalues --    1.67248   1.67678   1.67854   1.71851   1.72507
 Alpha virt. eigenvalues --    1.73099   1.74294   1.74966   1.77214   1.77744
 Alpha virt. eigenvalues --    1.79377   1.80350   1.84789   1.86696   1.89876
 Alpha virt. eigenvalues --    1.90277   1.91421   1.92074   1.94102   1.94328
 Alpha virt. eigenvalues --    1.95921   1.96717   1.98182   1.99787   2.01785
 Alpha virt. eigenvalues --    2.02220   2.02951   2.03523   2.05379   2.10419
 Alpha virt. eigenvalues --    2.10526   2.12310   2.16712   2.16905   2.19043
 Alpha virt. eigenvalues --    2.19598   2.21488   2.22032   2.23628   2.25483
 Alpha virt. eigenvalues --    2.25740   2.29813   2.29973   2.35310   2.35897
 Alpha virt. eigenvalues --    2.39704   2.50028   2.51814   2.55117   2.57184
 Alpha virt. eigenvalues --    2.63138   2.67330   2.69262   2.74929   2.79694
 Alpha virt. eigenvalues --    2.81621   2.87381   2.87734   2.95138   2.96251
 Alpha virt. eigenvalues --    3.05238   3.11169   3.15015   3.15720   3.16329
 Alpha virt. eigenvalues --    3.16530   3.17992   3.18876   3.20285   3.22407
 Alpha virt. eigenvalues --    3.23860   3.25408   3.25962   3.30548   3.30714
 Alpha virt. eigenvalues --    3.31458   3.31580   3.33769   3.34426   3.36741
 Alpha virt. eigenvalues --    3.41167   3.42221   3.44687   3.46855   3.47327
 Alpha virt. eigenvalues --    3.49372   3.50819   3.55901   3.56735   3.56801
 Alpha virt. eigenvalues --    3.58449   3.60654   3.63635   3.64268   3.65053
 Alpha virt. eigenvalues --    3.65106   3.67344   3.69992   3.70373   3.73112
 Alpha virt. eigenvalues --    3.75612   3.78295   3.82498   3.84170   3.84231
 Alpha virt. eigenvalues --    3.84423   3.86000   3.86743   3.87876   3.92577
 Alpha virt. eigenvalues --    3.95985   3.96120   3.97469   3.98165   3.98783
 Alpha virt. eigenvalues --    3.99922   4.00012   4.00554   4.02476   4.04000
 Alpha virt. eigenvalues --    4.04350   4.05214   4.06246   4.06421   4.06957
 Alpha virt. eigenvalues --    4.07710   4.09223   4.10705   4.12315   4.12613
 Alpha virt. eigenvalues --    4.13712   4.14854   4.16390   4.19167   4.19188
 Alpha virt. eigenvalues --    4.19415   4.19656   4.20255   4.21128   4.21691
 Alpha virt. eigenvalues --    4.22881   4.23591   4.23832   4.23898   4.25839
 Alpha virt. eigenvalues --    4.27675   4.29039   4.29548   4.30083   4.30637
 Alpha virt. eigenvalues --    4.30722   4.31119   4.32680   4.33895   4.34981
 Alpha virt. eigenvalues --    4.35096   4.35362   4.35643   4.36716   4.36862
 Alpha virt. eigenvalues --    4.38294   4.38563   4.38940   4.40843   4.41341
 Alpha virt. eigenvalues --    4.41759   4.42851   4.45144   4.45587   4.46297
 Alpha virt. eigenvalues --    4.46522   4.47632   4.47996   4.49717   4.50254
 Alpha virt. eigenvalues --    4.50720   4.52685   4.53759   4.54710   4.55893
 Alpha virt. eigenvalues --    4.56879   4.57999   4.60027   4.60295   4.62412
 Alpha virt. eigenvalues --    4.63502   4.65837   4.66135   4.67097   4.68040
 Alpha virt. eigenvalues --    4.70455   4.73196   4.73706   4.74030   4.75888
 Alpha virt. eigenvalues --    4.77229   4.77889   4.77901   4.78303   4.80250
 Alpha virt. eigenvalues --    4.80530   4.83438   4.84005   4.86085   4.88232
 Alpha virt. eigenvalues --    4.89056   4.89322   4.94321   4.96149   4.97499
 Alpha virt. eigenvalues --    4.97844   4.99572   5.01205   5.03843   5.04461
 Alpha virt. eigenvalues --    5.06520   5.06982   5.10727   5.10972   5.12865
 Alpha virt. eigenvalues --    5.14064   5.15276   5.16869   5.17185   5.18570
 Alpha virt. eigenvalues --    5.19776   5.23837   5.24265   5.26014   5.26136
 Alpha virt. eigenvalues --    5.28267   5.29745   5.31951   5.32680   5.33135
 Alpha virt. eigenvalues --    5.33434   5.35015   5.37782   5.39839   5.41717
 Alpha virt. eigenvalues --    5.44387   5.44995   5.45387   5.48496   5.49280
 Alpha virt. eigenvalues --    5.49325   5.50190   5.52612   5.53146   5.56498
 Alpha virt. eigenvalues --    5.57104   5.57148   5.57191   5.59499   5.64462
 Alpha virt. eigenvalues --    5.64988   5.71470   5.71521   5.72919   5.73454
 Alpha virt. eigenvalues --    5.78562   5.79139   5.81613   5.84219   5.84283
 Alpha virt. eigenvalues --    5.94289   5.94531   5.96035   5.99100   6.00101
 Alpha virt. eigenvalues --    6.09567   6.10702   6.19770   6.24800   6.28009
 Alpha virt. eigenvalues --    6.30964   6.33427   6.41498   6.43444   6.47606
 Alpha virt. eigenvalues --    6.50099   6.51437   6.75803   6.78181   7.02851
 Alpha virt. eigenvalues --    7.17514   7.87357  11.35095  11.68381
          Condensed to atoms (all electrons):
               1          2          3          4          5          6
     1  C    4.990138   0.172796   0.489444   0.489444  -0.092310  -0.092310
     2  C    0.172796   4.990138  -0.092310  -0.092310   0.489444   0.489444
     3  C    0.489444  -0.092310   5.064589  -0.071584  -0.010168   0.002584
     4  C    0.489444  -0.092310  -0.071584   5.064589   0.002584  -0.010168
     5  C   -0.092310   0.489444  -0.010168   0.002584   5.064589  -0.071584
     6  C   -0.092310   0.489444   0.002584  -0.010168  -0.071584   5.064589
     7  C   -0.041356   0.006858   0.442852  -0.065899  -0.000714  -0.000706
     8  C   -0.041356   0.006858  -0.065899   0.442852  -0.000706  -0.000714
     9  C    0.006858  -0.041356  -0.000714  -0.000706   0.442852  -0.065899
    10  C    0.006858  -0.041356  -0.000706  -0.000714  -0.065899   0.442852
    11  C   -0.067163   0.001142  -0.050323  -0.050323  -0.000212  -0.000212
    12  C    0.001142  -0.067163  -0.000212  -0.000212  -0.050323  -0.050323
    13  H   -0.055415  -0.004390   0.467539   0.012134  -0.001844   0.000690
    14  H   -0.055415  -0.004390   0.012134   0.467539   0.000690  -0.001844
    15  H   -0.004390  -0.055415  -0.001844   0.000690   0.467539   0.012134
    16  H   -0.004390  -0.055415   0.000690  -0.001844   0.012134   0.467539
    17  H    0.013214  -0.000696  -0.048921  -0.004396   0.000146  -0.000133
    18  H    0.013214  -0.000696  -0.004396  -0.048921  -0.000133   0.000146
    19  H   -0.000696   0.013214   0.000146  -0.000133  -0.048921  -0.004396
    20  H   -0.000696   0.013214  -0.000133   0.000146  -0.004396  -0.048921
    21  H   -0.006192   0.000062   0.016950   0.016950  -0.000003  -0.000003
    22  H    0.000062  -0.006192  -0.000003  -0.000003   0.016950   0.016950
               7          8          9         10         11         12
     1  C   -0.041356  -0.041356   0.006858   0.006858  -0.067163   0.001142
     2  C    0.006858   0.006858  -0.041356  -0.041356   0.001142  -0.067163
     3  C    0.442852  -0.065899  -0.000714  -0.000706  -0.050323  -0.000212
     4  C   -0.065899   0.442852  -0.000706  -0.000714  -0.050323  -0.000212
     5  C   -0.000714  -0.000706   0.442852  -0.065899  -0.000212  -0.050323
     6  C   -0.000706  -0.000714  -0.065899   0.442852  -0.000212  -0.050323
     7  C    4.895993  -0.022170   0.000085  -0.000143   0.459202   0.000025
     8  C   -0.022170   4.895993  -0.000143   0.000085   0.459202   0.000025
     9  C    0.000085  -0.000143   4.895993  -0.022170   0.000025   0.459202
    10  C   -0.000143   0.000085  -0.022170   4.895993   0.000025   0.459202
    11  C    0.459202   0.459202   0.000025   0.000025   4.867076  -0.000034
    12  C    0.000025   0.000025   0.459202   0.459202  -0.000034   4.867076
    13  H   -0.046338  -0.004709  -0.000045   0.000634   0.014311  -0.000298
    14  H   -0.004709  -0.046338   0.000634  -0.000045   0.014311  -0.000298
    15  H   -0.000045   0.000634  -0.046338  -0.004709  -0.000298   0.014311
    16  H    0.000634  -0.000045  -0.004709  -0.046338  -0.000298   0.014311
    17  H    0.457955   0.015486  -0.000006  -0.000021  -0.057011   0.000004
    18  H    0.015486   0.457955  -0.000021  -0.000006  -0.057011   0.000004
    19  H   -0.000006  -0.000021   0.457955   0.015486   0.000004  -0.057011
    20  H   -0.000021  -0.000006   0.015486   0.457955   0.000004  -0.057011
    21  H   -0.057840  -0.057840   0.000001   0.000001   0.458859  -0.000000
    22  H    0.000001   0.000001  -0.057840  -0.057840  -0.000000   0.458859
              13         14         15         16         17         18
     1  C   -0.055415  -0.055415  -0.004390  -0.004390   0.013214   0.013214
     2  C   -0.004390  -0.004390  -0.055415  -0.055415  -0.000696  -0.000696
     3  C    0.467539   0.012134  -0.001844   0.000690  -0.048921  -0.004396
     4  C    0.012134   0.467539   0.000690  -0.001844  -0.004396  -0.048921
     5  C   -0.001844   0.000690   0.467539   0.012134   0.000146  -0.000133
     6  C    0.000690  -0.001844   0.012134   0.467539  -0.000133   0.000146
     7  C   -0.046338  -0.004709  -0.000045   0.000634   0.457955   0.015486
     8  C   -0.004709  -0.046338   0.000634  -0.000045   0.015486   0.457955
     9  C   -0.000045   0.000634  -0.046338  -0.004709  -0.000006  -0.000021
    10  C    0.000634  -0.000045  -0.004709  -0.046338  -0.000021  -0.000006
    11  C    0.014311   0.014311  -0.000298  -0.000298  -0.057011  -0.057011
    12  C   -0.000298  -0.000298   0.014311   0.014311   0.000004   0.000004
    13  H    0.612220  -0.000159  -0.000181  -0.004185  -0.010309   0.000083
    14  H   -0.000159   0.612220  -0.004185  -0.000181   0.000083  -0.010309
    15  H   -0.000181  -0.004185   0.612220  -0.000159   0.000013   0.000152
    16  H   -0.004185  -0.000181  -0.000159   0.612220   0.000152   0.000013
    17  H   -0.010309   0.000083   0.000013   0.000152   0.631064  -0.000050
    18  H    0.000083  -0.010309   0.000152   0.000013  -0.000050   0.631064
    19  H    0.000013   0.000152  -0.010309   0.000083   0.000000  -0.000000
    20  H    0.000152   0.000013   0.000083  -0.010309  -0.000000   0.000000
    21  H   -0.000027  -0.000027  -0.000003  -0.000003  -0.010951  -0.010951
    22  H   -0.000003  -0.000003  -0.000027  -0.000027  -0.000000  -0.000000
              19         20         21         22
     1  C   -0.000696  -0.000696  -0.006192   0.000062
     2  C    0.013214   0.013214   0.000062  -0.006192
     3  C    0.000146  -0.000133   0.016950  -0.000003
     4  C   -0.000133   0.000146   0.016950  -0.000003
     5  C   -0.048921  -0.004396  -0.000003   0.016950
     6  C   -0.004396  -0.048921  -0.000003   0.016950
     7  C   -0.000006  -0.000021  -0.057840   0.000001
     8  C   -0.000021  -0.000006  -0.057840   0.000001
     9  C    0.457955   0.015486   0.000001  -0.057840
    10  C    0.015486   0.457955   0.000001  -0.057840
    11  C    0.000004   0.000004   0.458859  -0.000000
    12  C   -0.057011  -0.057011  -0.000000   0.458859
    13  H    0.000013   0.000152  -0.000027  -0.000003
    14  H    0.000152   0.000013  -0.000027  -0.000003
    15  H   -0.010309   0.000083  -0.000003  -0.000027
    16  H    0.000083  -0.010309  -0.000003  -0.000027
    17  H    0.000000  -0.000000  -0.010951  -0.000000
    18  H   -0.000000   0.000000  -0.010951  -0.000000
    19  H    0.631064  -0.000050  -0.000000  -0.010951
    20  H   -0.000050   0.631064  -0.000000  -0.010951
    21  H   -0.000000  -0.000000   0.629549   0.000000
    22  H   -0.010951  -0.010951   0.000000   0.629549
 Mulliken charges:
               1
     1  C    0.278517
     2  C    0.278517
     3  C   -0.149715
     4  C   -0.149715
     5  C   -0.149715
     6  C   -0.149715
     7  C   -0.039145
     8  C   -0.039145
     9  C   -0.039145
    10  C   -0.039145
    11  C    0.008725
    12  C    0.008725
    13  H    0.020127
    14  H    0.020127
    15  H    0.020127
    16  H    0.020127
    17  H    0.014378
    18  H    0.014378
    19  H    0.014378
    20  H    0.014378
    21  H    0.021469
    22  H    0.021469
 Sum of Mulliken charges =  -0.00000
 Mulliken charges with hydrogens summed into heavy atoms:
               1
     1  C    0.278517
     2  C    0.278517
     3  C   -0.129588
     4  C   -0.129588
     5  C   -0.129588
     6  C   -0.129588
     7  C   -0.024767
     8  C   -0.024767
     9  C   -0.024767
    10  C   -0.024767
    11  C    0.030194
    12  C    0.030194
 Electronic spatial extent (au):  <R**2>=           2304.5172
 Charge=             -0.0000 electrons
 Dipole moment (field-independent basis, Debye):
    X=             -0.0000    Y=             -0.0000    Z=             -0.0000  Tot=              0.0000
 Quadrupole moment (field-independent basis, Debye-Ang):
   XX=            -75.4750   YY=            -64.6342   ZZ=            -63.2252
   XY=              0.0000   XZ=             -0.0000   YZ=              0.0000
 Traceless Quadrupole moment (field-independent basis, Debye-Ang):
   XX=             -7.6969   YY=              3.1439   ZZ=              4.5529
   XY=              0.0000   XZ=             -0.0000   YZ=              0.0000
 Octapole moment (field-independent basis, Debye-Ang**2):
  XXX=             -0.0000  YYY=             -0.0000  ZZZ=             -0.0000  XYY=              0.0000
  XXY=             -0.0000  XXZ=             -0.0000  XZZ=             -0.0000  YZZ=             -0.0000
  YYZ=             -0.0000  XYZ=            -11.4002
 Hexadecapole moment (field-independent basis, Debye-Ang**3):
 XXXX=           -163.6279 YYYY=           -507.3142 ZZZZ=          -2350.6264 XXXY=             -0.0000
 XXXZ=              0.0000 YYYX=             -0.0000 YYYZ=             -0.0000 ZZZX=             -0.0000
 ZZZY=              0.0000 XXYY=           -113.7613 XXZZ=           -498.1882 YYZZ=           -485.7420
 XXYZ=              0.0000 YYXZ=              0.0000 ZZXY=              0.0000
 N-N= 6.004269273437D+02 E-N=-2.275932458888D+03  KE= 4.616472744017D+02
 Symmetry A    KE= 1.496580771807D+02
 Symmetry B1   KE= 1.468929380467D+02
 Symmetry B2   KE= 8.233266133369D+01
 Symmetry B3   KE= 8.276359784062D+01
 Calling FoFJK, ICntrl=      2127 FMM=F ISym2X=1 I1Cent= 0 IOpClX= 0 NMat=1 NMatS=1 NMatT=0.
 ***** Axes restored to original set *****
 -------------------------------------------------------------------
 Center     Atomic                   Forces (Hartrees/Bohr)
 Number     Number              X              Y              Z
 -------------------------------------------------------------------
      1        6          -0.000000000    0.000000000    0.000102554
      2        6          -0.000000000   -0.000000000   -0.000102554
      3        6           0.000076744   -0.000100776    0.000058648
      4        6          -0.000076744    0.000100776    0.000058648
      5        6           0.000076744    0.000100776   -0.000058648
      6        6          -0.000076744   -0.000100776   -0.000058648
      7        6          -0.000032118   -0.000009709    0.000021992
      8        6           0.000032118    0.000009709    0.000021992
      9        6          -0.000032118    0.000009709   -0.000021992
     10        6           0.000032118   -0.000009709   -0.000021992
     11        6          -0.000000000   -0.000000000    0.000009658
     12        6          -0.000000000    0.000000000   -0.000009658
     13        1           0.000372325   -0.000778588    0.000439188
     14        1          -0.000372325    0.000778588    0.000439188
     15        1           0.000372325    0.000778588   -0.000439188
     16        1          -0.000372325   -0.000778588   -0.000439188
     17        1           0.000321005   -0.000830749   -0.000516988
     18        1          -0.000321005    0.000830749   -0.000516988
     19        1           0.000321005    0.000830749    0.000516988
     20        1          -0.000321005   -0.000830749    0.000516988
     21        1          -0.000000000    0.000000000   -0.001032043
     22        1          -0.000000000   -0.000000000    0.001032043
 -------------------------------------------------------------------
 Cartesian Forces:  Max     0.001032043 RMS     0.000393672

 GradGradGradGradGradGradGradGradGradGradGradGradGradGradGradGradGradGrad
 Berny optimization.
 FormGI is forming the generalized inverse of G from B-inverse, IUseBI=4.
 Internal  Forces:  Max     0.001095765 RMS     0.000466847
 Search for a local minimum.
 Step number   1 out of a maximum of  121
 All quantities printed in internal units (Hartrees-Bohrs-Radians)
 Mixed Optimization -- En-DIIS/RFO-DIIS
 Second derivative matrix not updated -- first step.
 ITU=  0
     Eigenvalues ---    0.00976   0.01738   0.01738   0.02099   0.02099
     Eigenvalues ---    0.02147   0.02147   0.02159   0.02159   0.02191
     Eigenvalues ---    0.02191   0.02203   0.02203   0.02209   0.02209
     Eigenvalues ---    0.02214   0.02214   0.02215   0.02215   0.15994
     Eigenvalues ---    0.15994   0.15995   0.15995   0.15999   0.15999
     Eigenvalues ---    0.15999   0.15999   0.16000   0.16000   0.22000
     Eigenvalues ---    0.22000   0.22000   0.22000   0.23470   0.23470
     Eigenvalues ---    0.25000   0.25000   0.34102   0.35582   0.35582
     Eigenvalues ---    0.35582   0.35582   0.35623   0.35623   0.35623
     Eigenvalues ---    0.35623   0.35623   0.35623   0.42145   0.42145
     Eigenvalues ---    0.42363   0.42363   0.45947   0.45947   0.46425
     Eigenvalues ---    0.46425   0.47143   0.47143   0.47351   0.47351
 RFO step:  Lambda=-6.94520148D-05 EMin= 9.76009482D-03
 Linear search not attempted -- first point.
 Iteration  1 RMS(Cart)=  0.01038951 RMS(Int)=  0.00002544
 Iteration  2 RMS(Cart)=  0.00004242 RMS(Int)=  0.00000009
 Iteration  3 RMS(Cart)=  0.00000000 RMS(Int)=  0.00000009
 ClnCor:  largest displacement from symmetrization is 9.49D-12 for atom    15.
 Variable       Old X    -DE/DX   Delta X   Delta X   Delta X     New X
                                 (Linear)    (Quad)   (Total)
    R1        2.80458  -0.00091   0.00000  -0.00268  -0.00268   2.80190
    R2        2.64654  -0.00110   0.00000  -0.00241  -0.00241   2.64413
    R3        2.64654  -0.00110   0.00000  -0.00241  -0.00241   2.64413
    R4        2.64654  -0.00110   0.00000  -0.00241  -0.00241   2.64413
    R5        2.64654  -0.00110   0.00000  -0.00241  -0.00241   2.64413
    R6        2.62637  -0.00101   0.00000  -0.00212  -0.00212   2.62424
    R7        2.04676  -0.00097   0.00000  -0.00271  -0.00271   2.04405
    R8        2.62637  -0.00101   0.00000  -0.00212  -0.00212   2.62424
    R9        2.04676  -0.00097   0.00000  -0.00271  -0.00271   2.04405
   R10        2.62637  -0.00101   0.00000  -0.00212  -0.00212   2.62424
   R11        2.04676  -0.00097   0.00000  -0.00271  -0.00271   2.04405
   R12        2.62637  -0.00101   0.00000  -0.00212  -0.00212   2.62424
   R13        2.04676  -0.00097   0.00000  -0.00271  -0.00271   2.04405
   R14        2.62928  -0.00103   0.00000  -0.00219  -0.00219   2.62709
   R15        2.04741  -0.00103   0.00000  -0.00289  -0.00289   2.04451
   R16        2.62928  -0.00103   0.00000  -0.00219  -0.00219   2.62709
   R17        2.04741  -0.00103   0.00000  -0.00289  -0.00289   2.04451
   R18        2.62928  -0.00103   0.00000  -0.00219  -0.00219   2.62709
   R19        2.04741  -0.00103   0.00000  -0.00289  -0.00289   2.04451
   R20        2.62928  -0.00103   0.00000  -0.00219  -0.00219   2.62709
   R21        2.04741  -0.00103   0.00000  -0.00289  -0.00289   2.04451
   R22        2.04675  -0.00103   0.00000  -0.00290  -0.00290   2.04385
   R23        2.04675  -0.00103   0.00000  -0.00290  -0.00290   2.04385
    A1        2.11076   0.00002   0.00000   0.00009   0.00009   2.11086
    A2        2.11076   0.00002   0.00000   0.00009   0.00009   2.11086
    A3        2.06166  -0.00004   0.00000  -0.00019  -0.00019   2.06147
    A4        2.11076   0.00002   0.00000   0.00009   0.00009   2.11086
    A5        2.11076   0.00002   0.00000   0.00009   0.00009   2.11086
    A6        2.06166  -0.00004   0.00000  -0.00019  -0.00019   2.06147
    A7        2.11098   0.00004   0.00000   0.00018   0.00018   2.11116
    A8        2.08510  -0.00006   0.00000  -0.00035  -0.00035   2.08475
    A9        2.08681   0.00002   0.00000   0.00019   0.00019   2.08700
   A10        2.11098   0.00004   0.00000   0.00018   0.00018   2.11116
   A11        2.08510  -0.00006   0.00000  -0.00035  -0.00035   2.08475
   A12        2.08681   0.00002   0.00000   0.00019   0.00019   2.08700
   A13        2.11098   0.00004   0.00000   0.00018   0.00018   2.11116
   A14        2.08510  -0.00006   0.00000  -0.00035  -0.00035   2.08475
   A15        2.08681   0.00002   0.00000   0.00019   0.00019   2.08700
   A16        2.11098   0.00004   0.00000   0.00018   0.00018   2.11116
   A17        2.08510  -0.00006   0.00000  -0.00035  -0.00035   2.08475
   A18        2.08681   0.00002   0.00000   0.00019   0.00019   2.08700
   A19        2.09904  -0.00001   0.00000  -0.00002  -0.00002   2.09902
   A20        2.08873  -0.00001   0.00000  -0.00004  -0.00004   2.08869
   A21        2.09537   0.00001   0.00000   0.00007   0.00007   2.09544
   A22        2.09904  -0.00001   0.00000  -0.00002  -0.00002   2.09902
   A23        2.08873  -0.00001   0.00000  -0.00004  -0.00004   2.08869
   A24        2.09537   0.00001   0.00000   0.00007   0.00007   2.09544
   A25        2.09904  -0.00001   0.00000  -0.00002  -0.00002   2.09902
   A26        2.08873  -0.00001   0.00000  -0.00004  -0.00004   2.08869
   A27        2.09537   0.00001   0.00000   0.00007   0.00007   2.09544
   A28        2.09904  -0.00001   0.00000  -0.00002  -0.00002   2.09902
   A29        2.08873  -0.00001   0.00000  -0.00004  -0.00004   2.08869
   A30        2.09537   0.00001   0.00000   0.00007   0.00007   2.09544
   A31        2.08466  -0.00003   0.00000  -0.00012  -0.00012   2.08453
   A32        2.09926   0.00002   0.00000   0.00006   0.00006   2.09933
   A33        2.09926   0.00002   0.00000   0.00006   0.00006   2.09933
   A34        2.08466  -0.00003   0.00000  -0.00012  -0.00012   2.08453
   A35        2.09926   0.00002   0.00000   0.00006   0.00006   2.09933
   A36        2.09926   0.00002   0.00000   0.00006   0.00006   2.09933
    D1       -2.42901  -0.00016   0.00000  -0.01578  -0.01578  -2.44479
    D2        0.71259  -0.00016   0.00000  -0.01578  -0.01578   0.69680
    D3        0.71259  -0.00016   0.00000  -0.01578  -0.01578   0.69680
    D4       -2.42901  -0.00016   0.00000  -0.01578  -0.01578  -2.44479
    D5        3.14132  -0.00000   0.00000  -0.00013  -0.00013   3.14119
    D6        0.02569  -0.00003   0.00000  -0.00122  -0.00122   0.02447
    D7       -0.00027  -0.00000   0.00000  -0.00013  -0.00013  -0.00040
    D8       -3.11590  -0.00003   0.00000  -0.00122  -0.00122  -3.11712
    D9        3.14132  -0.00000   0.00000  -0.00013  -0.00013   3.14119
   D10        0.02569  -0.00003   0.00000  -0.00122  -0.00122   0.02447
   D11       -0.00027  -0.00000   0.00000  -0.00013  -0.00013  -0.00040
   D12       -3.11590  -0.00003   0.00000  -0.00122  -0.00122  -3.11712
   D13        3.14132  -0.00000   0.00000  -0.00013  -0.00013   3.14119
   D14        0.02569  -0.00003   0.00000  -0.00122  -0.00122   0.02447
   D15       -0.00027  -0.00000   0.00000  -0.00013  -0.00013  -0.00040
   D16       -3.11590  -0.00003   0.00000  -0.00122  -0.00122  -3.11712
   D17        3.14132  -0.00000   0.00000  -0.00013  -0.00013   3.14119
   D18        0.02569  -0.00003   0.00000  -0.00122  -0.00122   0.02447
   D19       -0.00027  -0.00000   0.00000  -0.00013  -0.00013  -0.00040
   D20       -3.11590  -0.00003   0.00000  -0.00122  -0.00122  -3.11712
   D21        0.00055   0.00001   0.00000   0.00027   0.00027   0.00081
   D22       -3.13186  -0.00001   0.00000  -0.00025  -0.00025  -3.13212
   D23        3.11615   0.00003   0.00000   0.00135   0.00135   3.11750
   D24       -0.01626   0.00002   0.00000   0.00083   0.00083  -0.01543
   D25        0.00055   0.00001   0.00000   0.00027   0.00027   0.00081
   D26       -3.13186  -0.00001   0.00000  -0.00025  -0.00025  -3.13212
   D27        3.11615   0.00003   0.00000   0.00135   0.00135   3.11750
   D28       -0.01626   0.00002   0.00000   0.00083   0.00083  -0.01543
   D29        0.00055   0.00001   0.00000   0.00027   0.00027   0.00081
   D30       -3.13186  -0.00001   0.00000  -0.00025  -0.00025  -3.13212
   D31        3.11615   0.00003   0.00000   0.00135   0.00135   3.11750
   D32       -0.01626   0.00002   0.00000   0.00083   0.00083  -0.01543
   D33        0.00055   0.00001   0.00000   0.00027   0.00027   0.00081
   D34       -3.13186  -0.00001   0.00000  -0.00025  -0.00025  -3.13212
   D35        3.11615   0.00003   0.00000   0.00135   0.00135   3.11750
   D36       -0.01626   0.00002   0.00000   0.00083   0.00083  -0.01543
   D37       -0.00027  -0.00000   0.00000  -0.00013  -0.00013  -0.00040
   D38        3.14132  -0.00000   0.00000  -0.00013  -0.00013   3.14119
   D39        3.13211   0.00001   0.00000   0.00039   0.00039   3.13249
   D40       -0.00949   0.00001   0.00000   0.00039   0.00039  -0.00910
   D41       -0.00027  -0.00000   0.00000  -0.00013  -0.00013  -0.00040
   D42        3.14132  -0.00000   0.00000  -0.00013  -0.00013   3.14119
   D43        3.13211   0.00001   0.00000   0.00039   0.00039   3.13249
   D44       -0.00949   0.00001   0.00000   0.00039   0.00039  -0.00910
   D45       -0.00027  -0.00000   0.00000  -0.00013  -0.00013  -0.00040
   D46        3.14132  -0.00000   0.00000  -0.00013  -0.00013   3.14119
   D47        3.13211   0.00001   0.00000   0.00039   0.00039   3.13249
   D48       -0.00949   0.00001   0.00000   0.00039   0.00039  -0.00910
   D49       -0.00027  -0.00000   0.00000  -0.00013  -0.00013  -0.00040
   D50        3.14132  -0.00000   0.00000  -0.00013  -0.00013   3.14119
   D51        3.13211   0.00001   0.00000   0.00039   0.00039   3.13249
   D52       -0.00949   0.00001   0.00000   0.00039   0.00039  -0.00910
         Item               Value     Threshold  Converged?
 Maximum Force            0.001096     0.000450     NO 
 RMS     Force            0.000467     0.000300     NO 
 Maximum Displacement     0.033594     0.001800     NO 
 RMS     Displacement     0.010384     0.001200     NO 
 Predicted change in Energy=-3.476665D-05
 GradGradGradGradGradGradGradGradGradGradGradGradGradGradGradGradGradGrad

                          Input orientation:                          
 ---------------------------------------------------------------------
 Center     Atomic      Atomic             Coordinates (Angstroms)
 Number     Number       Type             X           Y           Z
 ---------------------------------------------------------------------
      1          6           0       -0.000000    0.000000    0.741351
      2          6           0        0.000000    0.000000   -0.741351
      3          6           0       -0.409701    1.127973    1.460807
      4          6           0        0.409701   -1.127973    1.460807
      5          6           0       -0.409701   -1.127973   -1.460807
      6          6           0        0.409701    1.127973   -1.460807
      7          6           0       -0.410300    1.128211    2.849496
      8          6           0        0.410300   -1.128211    2.849496
      9          6           0       -0.410300   -1.128211   -2.849496
     10          6           0        0.410300    1.128211   -2.849496
     11          6           0       -0.000000   -0.000000    3.550523
     12          6           0        0.000000   -0.000000   -3.550523
     13          1           0       -0.752367    2.003880    0.926616
     14          1           0        0.752367   -2.003880    0.926616
     15          1           0       -0.752367   -2.003880   -0.926616
[...]
 3659,-0.02667855,-0.00011741,0.00000139,0.00019916,-0.00011741,0.00000
 139,-0.00019916,-0.08926715,-0.06781043,0.01758004,-0.08926715,-0.0678
 1043,-0.01758004,-0.00013428,0.00015917,0.,0.19491266,0.00067356,-0.00
 088923,0.,-0.01913826,-0.06142283,0.,0.00047294,0.00001808,-0.00075233
 ,0.00047294,0.00001807,0.00075233,0.00736210,0.02998594,0.07271170,0.0
 0736210,0.02998595,-0.07271170,-0.00049011,-0.00016508,0.00022999,-0.0
 0049011,-0.00016508,-0.00022999,-0.06819754,-0.25409144,0.05156725,-0.
 06819754,-0.25409144,-0.05156725,-0.00015917,0.00021635,0.,0.16491108,
 0.59469895,0.,0.,-0.00155603,0.,0.,0.00312876,0.00020011,0.00077541,0.
 00005650,-0.00020011,-0.00077541,0.00005650,0.01080760,0.02801966,-0.0
 2930523,-0.01080760,-0.02801966,-0.02930523,-0.00022016,0.00011550,-0.
 00017052,0.00022016,-0.00011550,-0.00017052,0.04025714,0.11234187,-0.1
 8032516,-0.04025714,-0.11234187,-0.18032516,0.,0.,-0.00016447,0.,0.,0.
 74114308,0.00098630,0.00715410,-0.00653139,-0.00291799,-0.00156522,0.0
 0053212,-0.06772133,0.07872521,-0.04314622,0.00539228,0.00295663,0.001
 62828,0.00010279,-0.00029390,-0.00059390,0.00028528,0.00103165,0.00074
 166,0.00372218,-0.00020019,0.00107722,-0.00088098,-0.00046898,0.000021
 01,-0.00000653,-0.00033729,0.00019510,-0.00018536,-0.00052998,-0.00029
 086,0.00664834,0.00210861,0.00027244,0.00006600,0.00027384,-0.00000429
 ,0.05937124,0.00796518,-0.01726777,0.01380366,-0.00146552,0.00017104,0
 .00229323,0.07769078,-0.23789479,0.10904635,0.00310603,-0.00204158,-0.
 00372852,-0.00025086,-0.00035582,-0.00083221,-0.00052827,0.00016550,0.
 00026363,-0.00006313,0.00354999,-0.00159065,-0.00034580,-0.00000372,-0
 .00091320,-0.00000893,-0.00021464,0.00046192,-0.00017690,0.00015770,-0
 .00053998,0.00184946,0.00266235,-0.00039160,0.00020308,0.00039829,0.00
 002846,-0.08685094,0.25093592,0.00488088,-0.01258544,0.01079239,0.0001
 6984,-0.00017408,0.00070986,-0.04357787,0.10977255,-0.12511130,0.00115
 250,-0.00311747,-0.00109002,-0.00002763,-0.00005471,0.00009818,0.00039
 314,-0.00022301,-0.00036887,-0.01025036,0.02744548,-0.01131957,0.00024
 954,-0.00070674,-0.00068439,0.00001369,-0.00000283,0.00012456,-0.00013
 341,-0.00002836,-0.00028853,0.00049504,-0.00128542,-0.00552498,0.00001
 972,0.00016740,0.00001531,0.04586090,-0.11922104,0.13234425,0.00098630
 ,0.00715410,0.00653139,-0.00291799,-0.00156522,-0.00053212,0.00539228,
 0.00295663,-0.00162828,-0.06772133,0.07872521,0.04314622,0.00028528,0.
 00103165,-0.00074166,0.00010279,-0.00029390,0.00059390,-0.00088098,-0.
 00046898,-0.00002101,0.00372218,-0.00020019,-0.00107722,-0.00018536,-0
 .00052998,0.00029086,-0.00000653,-0.00033729,-0.00019510,0.00664834,0.
 00210861,-0.00027244,0.00006600,0.00027384,0.00000429,0.00010569,0.000
 37887,0.00032188,0.05937124,0.00796518,-0.01726777,-0.01380366,-0.0014
 6552,0.00017104,-0.00229323,0.00310603,-0.00204158,0.00372852,0.077690
 78,-0.23789479,-0.10904635,-0.00052827,0.00016550,-0.00026363,-0.00025
 086,-0.00035582,0.00083221,-0.00034580,-0.00000372,0.00091320,-0.00006
 313,0.00354999,0.00159065,-0.00017690,0.00015770,0.00053998,-0.0000089
 3,-0.00021464,-0.00046192,0.00184946,0.00266235,0.00039160,0.00020309,
 0.00039829,-0.00002846,0.00037887,-0.00095185,-0.00075863,-0.08685094,
 0.25093592,-0.00488088,0.01258544,0.01079239,-0.00016984,0.00017408,0.
 00070986,-0.00115250,0.00311747,-0.00109002,0.04357787,-0.10977255,-0.
 12511130,-0.00039314,0.00022301,-0.00036887,0.00002763,0.00005471,0.00
 009818,-0.00024954,0.00070674,-0.00068439,0.01025036,-0.02744548,-0.01
 131957,0.00013341,0.00002836,-0.00028853,-0.00001369,0.00000283,0.0001
 2456,-0.00049504,0.00128542,-0.00552498,-0.00001972,-0.00016739,0.0000
 1531,-0.00032188,0.00075863,0.00050182,-0.04586090,0.11922104,0.132344
 25,-0.00291799,0.00156522,-0.00053212,0.00098630,-0.00715410,0.0065313
 9,0.00010279,0.00029390,0.00059390,0.00028528,-0.00103165,-0.00074166,
 -0.06772133,-0.07872521,0.04314622,0.00539228,-0.00295663,-0.00162828,
 -0.00000653,0.00033729,-0.00019510,-0.00018536,0.00052998,0.00029086,0
 .00372218,0.00020019,-0.00107722,-0.00088098,0.00046898,-0.00002101,0.
 00006600,-0.00027384,0.00000429,0.00664834,-0.00210861,-0.00027244,-0.
 00008450,0.00004396,0.00004903,-0.00046366,0.00037800,-0.00069480,0.05
 937124,0.00146552,0.00017104,0.00229323,-0.00796518,-0.01726777,0.0138
 0366,0.00025086,-0.00035582,-0.00083221,0.00052827,0.00016550,0.000263
 63,-0.07769078,-0.23789479,0.10904635,-0.00310603,-0.00204158,-0.00372
 852,0.00000893,-0.00021464,0.00046192,0.00017690,0.00015770,-0.0005399
 8,0.00006313,0.00354999,-0.00159065,0.00034580,-0.00000372,-0.00091320
 ,-0.00020309,0.00039829,0.00002846,-0.00184946,0.00266235,-0.00039160,
 -0.00004396,0.00007938,0.00002765,-0.00037800,0.00045883,0.00024394,0.
 08685094,0.25093592,-0.00016984,-0.00017408,0.00070986,-0.00488088,-0.
 01258544,0.01079239,0.00002763,-0.00005471,0.00009818,-0.00039314,-0.0
 0022301,-0.00036887,0.04357787,0.10977255,-0.12511130,-0.00115250,-0.0
 0311747,-0.00109002,-0.00001369,-0.00000283,0.00012456,0.00013341,-0.0
 0002836,-0.00028853,0.01025036,0.02744548,-0.01131957,-0.00024954,-0.0
 0070674,-0.00068439,-0.00001972,0.00016739,0.00001531,-0.00049504,-0.0
 0128542,-0.00552498,-0.00004903,0.00002765,0.00000460,-0.00069480,-0.0
 0024394,-0.00077766,-0.04586090,-0.11922104,0.13234425,-0.00291799,0.0
 0156522,0.00053212,0.00098630,-0.00715410,-0.00653139,0.00028528,-0.00
 103165,0.00074166,0.00010279,0.00029390,-0.00059390,0.00539228,-0.0029
 5663,0.00162828,-0.06772133,-0.07872521,-0.04314622,-0.00018536,0.0005
 2998,-0.00029086,-0.00000653,0.00033729,0.00019510,-0.00088098,0.00046
 898,0.00002101,0.00372218,0.00020019,0.00107722,0.00006600,-0.00027384
 ,-0.00000429,0.00664834,-0.00210861,0.00027244,-0.00046366,0.00037800,
 0.00069480,-0.00008450,0.00004396,-0.00004903,0.00010569,-0.00037887,-
 0.00032188,0.05937124,0.00146552,0.00017104,-0.00229323,-0.00796518,-0
 .01726777,-0.01380366,0.00052827,0.00016550,-0.00026363,0.00025086,-0.
 00035582,0.00083221,-0.00310603,-0.00204158,0.00372852,-0.07769078,-0.
 23789479,-0.10904635,0.00017690,0.00015770,0.00053998,0.00000893,-0.00
 021464,-0.00046192,0.00034580,-0.00000372,0.00091320,0.00006313,0.0035
 4999,0.00159065,-0.00020308,0.00039829,-0.00002846,-0.00184946,0.00266
 235,0.00039160,-0.00037800,0.00045883,-0.00024394,-0.00004396,0.000079
 38,-0.00002765,-0.00037887,-0.00095185,-0.00075863,0.08685094,0.250935
 92,0.00016984,0.00017408,0.00070986,0.00488088,0.01258544,0.01079239,0
 .00039314,0.00022301,-0.00036887,-0.00002763,0.00005471,0.00009818,0.0
 0115250,0.00311747,-0.00109002,-0.04357787,-0.10977255,-0.12511130,-0.
 00013341,0.00002836,-0.00028853,0.00001369,0.00000283,0.00012456,0.000
 24954,0.00070674,-0.00068439,-0.01025036,-0.02744548,-0.01131957,0.000
 01972,-0.00016740,0.00001531,0.00049504,0.00128542,-0.00552498,0.00069
 480,0.00024394,-0.00077766,0.00004903,-0.00002765,0.00000460,0.0003218
 8,0.00075863,0.00050182,0.04586090,0.11922104,0.13234425,0.00684915,0.
 00173693,-0.00036093,0.00018147,0.00003570,-0.00004438,0.00347220,0.00
 029027,-0.00047234,-0.00087298,-0.00039031,-0.00042347,-0.00009324,0.0
 0003684,0.00006287,-0.00007876,-0.00000529,0.00005622,-0.06537317,0.07
 513087,0.04069025,0.00594951,0.00340581,-0.00111678,0.00001519,-0.0000
 3507,0.00003992,0.00002790,0.00000370,0.00001030,0.00105533,0.00679951
 ,0.00555767,0.00000332,0.00000685,-0.00000028,-0.00363337,-0.00172527,
 0.00014911,-0.00092051,-0.00032490,0.00003484,-0.00002438,-0.00002106,
 0.00001324,0.00000192,0.00002887,0.00005747,0.05683986,0.00176786,0.00
 254177,0.00055977,0.00004121,0.00001441,0.00020970,0.00001322,0.003551
 22,0.00172380,-0.00040962,0.00011158,0.00076335,0.00000217,0.00004931,
 0.00000051,-0.00001347,-0.00002796,-0.00005262,0.07478166,-0.23992358,
 -0.11102902,0.00334904,-0.00192910,0.00396263,0.00000843,-0.00000832,0
 .00000870,0.00000089,-0.00000088,0.00000976,0.00746844,-0.01658558,-0.
 01506601,-0.00000553,-0.00000230,-0.00003158,-0.00164201,0.00022509,-0
 .00036043,-0.00033381,-0.00013702,-0.00007757,0.00000271,-0.00000482,0
 .00001498,-0.00001189,-0.00000776,0.00003034,-0.08372034,0.25257142,-0
 .00025616,0.00124276,-0.00541788,0.00034167,-0.00139720,0.00006452,0.0
 1025130,-0.02745172,-0.01131239,-0.00031238,0.00083937,-0.00081537,0.0
 0005639,0.00014779,-0.00044565,-0.00007013,-0.00003892,-0.00004775,0.0
 4090418,-0.11080785,-0.12699248,-0.00103749,0.00305339,-0.00080973,-0.
 00010260,-0.00007992,-0.00001168,-0.00001504,0.00003583,-0.00000391,-0
 .00522065,0.01418310,0.01198779,0.00000826,0.00000066,-0.00005161,-0.0
 0013722,0.00037994,0.00113186,0.00002520,-0.00009742,0.00005125,0.0000
 1975,-0.00001874,0.00002192,0.00004766,0.00000819,0.00000805,-0.044445
 63,0.11984943,0.13150668,0.00684915,0.00173693,0.00036093,0.00018147,0
 .00003570,0.00004438,-0.00087298,-0.00039031,0.00042347,0.00347220,0.0
 0029027,0.00047234,-0.00007876,-0.00000529,-0.00005622,-0.00009324,0.0
 0003684,-0.00006287,0.00594951,0.00340581,0.00111678,-0.06537317,0.075
 13087,-0.04069025,0.00002790,0.00000370,-0.00001030,0.00001519,-0.0000
 3507,-0.00003992,0.00105533,0.00679951,-0.00555767,0.00000332,0.000006
 85,0.00000028,-0.00092051,-0.00032490,-0.00003484,-0.00363337,-0.00172
 527,-0.00014911,0.00000192,0.00002887,-0.00005747,-0.00002438,-0.00002
 106,-0.00001324,0.00002697,0.00036505,-0.00026518,0.05683986,0.0017678
 6,0.00254177,-0.00055977,0.00004121,0.00001441,-0.00020970,-0.00040962
 ,0.00011158,-0.00076335,0.00001322,0.00355122,-0.00172380,-0.00001347,
 -0.00002796,0.00005262,0.00000217,0.00004931,-0.00000051,0.00334904,-0
 .00192910,-0.00396263,0.07478166,-0.23992358,0.11102902,0.00000089,-0.
 00000088,-0.00000976,0.00000843,-0.00000832,-0.00000870,0.00746843,-0.
 01658558,0.01506601,-0.00000553,-0.00000230,0.00003158,-0.00033381,-0.
 00013702,0.00007757,-0.00164201,0.00022509,0.00036043,-0.00001189,-0.0
 0000776,-0.00003034,0.00000271,-0.00000482,-0.00001498,0.00036505,-0.0
 0089665,0.00076245,-0.08372034,0.25257142,0.00025616,-0.00124276,-0.00
 541788,-0.00034167,0.00139720,0.00006452,0.00031238,-0.00083937,-0.000
 81537,-0.01025130,0.02745172,-0.01131239,0.00007013,0.00003892,-0.0000
 4775,-0.00005639,-0.00014779,-0.00044565,0.00103749,-0.00305339,-0.000
 80973,-0.04090418,0.11080785,-0.12699248,0.00001504,-0.00003583,-0.000
 00391,0.00010260,0.00007992,-0.00001168,0.00522065,-0.01418310,0.01198
 779,-0.00000826,-0.00000066,-0.00005161,-0.00002520,0.00009742,0.00005
 125,0.00013722,-0.00037994,0.00113186,-0.00004766,-0.00000819,0.000008
 05,-0.00001975,0.00001874,0.00002192,0.00026518,-0.00076245,0.00038486
 ,0.04444563,-0.11984943,0.13150668,0.00018147,-0.00003570,0.00004438,0
 .00684915,-0.00173693,0.00036093,-0.00009324,-0.00003684,-0.00006287,-
 0.00007876,0.00000529,-0.00005622,0.00347220,-0.00029027,0.00047234,-0
 .00087298,0.00039031,0.00042347,0.00001519,0.00003507,-0.00003992,0.00
 002790,-0.00000370,-0.00001030,-0.06537317,-0.07513087,-0.04069025,0.0
 0594951,-0.00340581,0.00111678,0.00000332,-0.00000685,0.00000028,0.001
 05533,-0.00679951,-0.00555767,-0.00002438,0.00002106,-0.00001324,0.000
 00192,-0.00002887,-0.00005747,-0.00363337,0.00172527,-0.00014911,-0.00
 092051,0.00032490,-0.00003484,0.00000744,0.00000032,-0.00000347,0.0000
 0024,0.00000243,-0.00000745,0.05683986,-0.00004121,0.00001441,0.000209
 70,-0.00176786,0.00254177,0.00055977,-0.00000217,0.00004931,0.00000051
 ,0.00001347,-0.00002796,-0.00005262,-0.00001322,0.00355122,0.00172380,
 0.00040962,0.00011158,0.00076335,-0.00000843,-0.00000832,0.00000870,-0
 .00000089,-0.00000088,0.00000976,-0.07478166,-0.23992358,-0.11102902,-
 0.00334904,-0.00192910,0.00396263,0.00000553,-0.00000230,-0.00003158,-
 0.00746843,-0.01658558,-0.01506601,-0.00000271,-0.00000482,0.00001498,
 0.00001189,-0.00000776,0.00003034,0.00164201,0.00022509,-0.00036043,0.
 00033381,-0.00013702,-0.00007757,-0.00000032,-0.00000392,-0.00000844,-
 0.00000243,0.00000627,-0.00000947,0.08372034,0.25257142,-0.00034167,-0
 .00139720,0.00006452,0.00025616,0.00124276,-0.00541788,-0.00005639,0.0
 0014779,-0.00044565,0.00007013,-0.00003892,-0.00004775,-0.01025130,-0.
 02745172,-0.01131239,0.00031238,0.00083937,-0.00081537,0.00010260,-0.0
 0007992,-0.00001168,0.00001504,0.00003583,-0.00000391,-0.04090418,-0.1
 1080785,-0.12699248,0.00103749,0.00305339,-0.00080973,-0.00000826,0.00
 000066,-0.00005161,0.00522065,0.01418310,0.01198779,-0.00001975,-0.000
 01874,0.00002192,-0.00004766,0.00000819,0.00000805,0.00013722,0.000379
 94,0.00113186,-0.00002520,-0.00009742,0.00005125,0.00000347,-0.0000084
 4,-0.00005105,-0.00000745,0.00000947,-0.00002960,0.04444563,0.11984943
 ,0.13150668,0.00018147,-0.00003570,-0.00004438,0.00684915,-0.00173693,
 -0.00036093,-0.00007876,0.00000529,0.00005622,-0.00009324,-0.00003684,
 0.00006287,-0.00087298,0.00039031,-0.00042347,0.00347220,-0.00029027,-
 0.00047234,0.00002790,-0.00000370,0.00001030,0.00001519,0.00003507,0.0
 0003992,0.00594951,-0.00340581,-0.00111678,-0.06537317,-0.07513087,0.0
 4069025,0.00000332,-0.00000685,-0.00000028,0.00105533,-0.00679951,0.00
 555767,0.00000192,-0.00002887,0.00005747,-0.00002438,0.00002106,0.0000
 1324,-0.00092051,0.00032490,0.00003484,-0.00363337,0.00172527,0.000149
 11,0.00000024,0.00000243,0.00000745,0.00000744,0.00000032,0.00000347,0
 .00002697,-0.00036505,0.00026518,0.05683986,-0.00004121,0.00001441,-0.
 00020970,-0.00176786,0.00254177,-0.00055977,0.00001347,-0.00002796,0.0
 0005262,-0.00000217,0.00004931,-0.00000051,0.00040962,0.00011158,-0.00
 076335,-0.00001322,0.00355122,-0.00172380,-0.00000089,-0.00000088,-0.0
 0000976,-0.00000843,-0.00000832,-0.00000870,-0.00334904,-0.00192910,-0
 .00396263,-0.07478166,-0.23992358,0.11102902,0.00000553,-0.00000230,0.
 00003158,-0.00746844,-0.01658558,0.01506601,0.00001189,-0.00000776,-0.
 00003034,-0.00000271,-0.00000482,-0.00001498,0.00033381,-0.00013702,0.
 00007757,0.00164201,0.00022509,0.00036043,-0.00000243,0.00000627,0.000
 00947,-0.00000032,-0.00000392,0.00000844,-0.00036505,-0.00089665,0.000
 76245,0.08372034,0.25257142,0.00034167,0.00139720,0.00006452,-0.000256
 16,-0.00124276,-0.00541788,-0.00007013,0.00003892,-0.00004775,0.000056
 39,-0.00014779,-0.00044565,-0.00031238,-0.00083937,-0.00081537,0.01025
 130,0.02745172,-0.01131239,-0.00001504,-0.00003583,-0.00000391,-0.0001
 0260,0.00007992,-0.00001168,-0.00103749,-0.00305339,-0.00080973,0.0409
 0418,0.11080785,-0.12699248,0.00000826,-0.00000066,-0.00005161,-0.0052
 2065,-0.01418310,0.01198779,0.00004766,-0.00000819,0.00000805,0.000019
 75,0.00001874,0.00002192,0.00002520,0.00009742,0.00005125,-0.00013722,
 -0.00037994,0.00113186,0.00000745,-0.00000947,-0.00002960,-0.00000347,
 0.00000844,-0.00005105,-0.00026518,-0.00076245,0.00038486,-0.04444563,
 -0.11984943,0.13150668,-0.00105922,0.00028321,0.,-0.00084212,-0.000274
 85,0.,0.00589326,0.00359394,-0.00085464,0.00589326,0.00359394,0.000854
 64,0.00002866,0.00000419,-0.00025452,0.00002866,0.00000419,0.00025452,
 0.00344255,-0.00045555,-0.00955787,0.00344255,-0.00045555,0.00955787,-
 0.00005468,-0.00012509,0.00018498,-0.00005468,-0.00012509,-0.00018498,
 -0.03943596,0.00751568,0.,0.00006550,0.00018855,0.,0.00015210,0.000080
 30,-0.00048589,0.00015210,0.00008030,0.00048589,0.00000449,-0.00005268
 ,-0.00001570,0.00000449,-0.00005268,0.00001570,-0.00342285,-0.00166625
 ,0.00019753,-0.00342285,-0.00166625,-0.00019753,-0.00001125,0.00000049
 ,-0.00000656,-0.00001125,0.00000049,0.00000656,0.02919063,0.00007915,-
 0.00127227,0.,-0.00035729,0.00007962,0.,0.00374335,-0.00318125,0.00210
 130,0.00374335,-0.00318125,-0.00210130,-0.00005326,-0.00003631,-0.0001
 1129,-0.00005326,-0.00003631,0.00011129,-0.00051040,0.00453504,0.02706
 029,-0.00051040,0.00453504,-0.02706029,-0.00000839,-0.00002458,0.00012
 063,-0.00000839,-0.00002458,-0.00012063,0.00741721,-0.05714707,0.,0.00
 004777,0.00010334,0.,0.00004693,0.00005517,0.00127860,0.00004693,0.000
 05517,-0.00127860,0.00004072,0.00002054,0.00000821,0.00004072,0.000020
 54,-0.00000821,-0.00161952,0.00045723,-0.00061311,-0.00161952,0.000457
 23,0.00061311,-0.00000413,-0.00000039,0.00000093,-0.00000413,-0.000000
 39,-0.00000093,-0.01046434,0.05458079,0.,0.,0.00063565,0.,0.,0.0000773
 2,-0.00110305,0.00299028,0.00067274,0.00110305,-0.00299028,0.00067274,
 -0.00001594,-0.00001061,-0.00004344,0.00001594,0.00001061,-0.00004344,
 0.00084155,-0.00234386,-0.01177108,-0.00084155,0.00234386,-0.01177108,
 -0.00001171,0.00001187,0.00001026,0.00001171,-0.00001187,0.00001026,0.
 ,0.,-0.33588951,0.,0.,-0.00002601,0.00007957,-0.00017936,-0.00065384,-
 0.00007957,0.00017936,-0.00065384,0.00003102,0.00001867,0.00001511,-0.
 00003102,-0.00001867,0.00001511,-0.00008755,0.00027195,0.00084248,0.00
 008755,-0.00027195,0.00084248,-0.00000338,-0.00000733,-0.00001031,0.00
 000338,0.00000733,-0.00001031,0.,0.,0.35709051,-0.00084212,0.00027485,
 0.,-0.00105922,-0.00028321,0.,0.00002866,-0.00000419,0.00025452,0.0000
 2866,-0.00000419,-0.00025452,0.00589326,-0.00359394,0.00085464,0.00589
 326,-0.00359394,-0.00085464,-0.00005468,0.00012509,-0.00018498,-0.0000
 5468,0.00012509,0.00018498,0.00344255,0.00045555,0.00955787,0.00344255
 ,0.00045555,-0.00955787,0.00006550,-0.00018855,0.,-0.03943596,-0.00751
 568,0.,0.00000449,0.00005268,0.00001570,0.00000449,0.00005268,-0.00001
 570,0.00015210,-0.00008030,0.00048589,0.00015210,-0.00008030,-0.000485
 89,-0.00001125,-0.00000049,0.00000656,-0.00001125,-0.00000049,-0.00000
 656,-0.00342285,0.00166625,-0.00019753,-0.00342285,0.00166625,0.000197
 53,0.00001664,0.00000693,0.,0.02919063,0.00035729,0.00007962,0.,-0.000
 07915,-0.00127227,0.,0.00005326,-0.00003631,-0.00011129,0.00005326,-0.
 00003631,0.00011129,-0.00374335,-0.00318125,0.00210130,-0.00374335,-0.
 00318125,-0.00210130,0.00000839,-0.00002458,0.00012063,0.00000839,-0.0
 0002458,-0.00012063,0.00051040,0.00453504,0.02706029,0.00051040,0.0045
 3504,-0.02706029,-0.00004777,0.00010334,0.,-0.00741721,-0.05714707,0.,
 -0.00004072,0.00002054,0.00000821,-0.00004072,0.00002054,-0.00000821,-
 0.00004693,0.00005517,0.00127860,-0.00004693,0.00005517,-0.00127860,0.
 00000413,-0.00000039,0.00000093,0.00000413,-0.00000039,-0.00000093,0.0
 0161952,0.00045723,-0.00061311,0.00161952,0.00045723,0.00061311,-0.000
 00693,0.00000470,0.,0.01046434,0.05458079,0.,0.,0.00007732,0.,0.,0.000
 63565,0.00001594,-0.00001061,-0.00004344,-0.00001594,0.00001061,-0.000
 04344,0.00110305,0.00299028,0.00067274,-0.00110305,-0.00299028,0.00067
 274,0.00001171,0.00001187,0.00001026,-0.00001171,-0.00001187,0.0000102
 6,-0.00084155,-0.00234386,-0.01177108,0.00084155,0.00234386,-0.0117710
 8,0.,0.,-0.00002601,0.,0.,-0.33588951,-0.00003102,0.00001867,0.0000151
 1,0.00003102,-0.00001867,0.00001511,-0.00007957,-0.00017936,-0.0006538
 4,0.00007957,0.00017936,-0.00065384,0.00000338,-0.00000733,-0.00001031
 ,-0.00000338,0.00000733,-0.00001031,0.00008755,0.00027195,0.00084248,-
 0.00008755,-0.00027195,0.00084248,0.,0.,-0.00001179,0.,0.,0.35709051\\
 0.,0.,0.00001411,0.,0.,-0.00001411,-0.00000755,0.00000907,-0.00000372,
 0.00000755,-0.00000907,-0.00000372,-0.00000755,-0.00000907,0.00000372,
 0.00000755,0.00000907,0.00000372,-0.00000028,0.00001354,0.00000308,0.0
 0000028,-0.00001354,0.00000308,-0.00000028,-0.00001354,-0.00000308,0.0
 0000028,0.00001354,-0.00000308,0.,0.,0.00000207,0.,0.,-0.00000207,0.00
 000272,-0.00000007,-0.00000288,-0.00000272,0.00000007,-0.00000288,0.00
 000272,0.00000007,0.00000288,-0.00000272,-0.00000007,0.00000288,-0.000
 00100,-0.00000309,-0.00000032,0.00000100,0.00000309,-0.00000032,-0.000
 00100,0.00000309,0.00000032,0.00000100,-0.00000309,0.00000032,0.,0.,0.
 00000038,0.,0.,-0.00000038\\\@


 DIATOMIC MOLECULES ARE PECULIAR BECAUSE THEY ONLY HAVE TWO ENDS,
 AND THESE ENDS ARE VERY CLOSE TOGETHER.
 KLAUS RUEDENBERG, REV.MOD.PHYS. PG 176, 32, (1960)
 Job cpu time:       0 days  2 hours 51 minutes 41.4 seconds.
 Elapsed time:       0 days  0 hours 14 minutes 18.6 seconds.
 File lengths (MBytes):  RWF=    224 Int=      0 D2E=      0 Chk=     21 Scr=      1
 Normal termination of Gaussian 16 at Fri Jun 17 18:15:54 2022.
