 Entering Gaussian System, Link 0=g16
 AtFile(1): pcseg2.gbs
            -H     0
            S   4   1.00
                  0.754732D+02           0.427821D-02
                  0.113575D+02           0.328672D-01
                  0.260081D+01           0.159578D+00
                  0.735503D+00           0.500000D+00
            S   1   1.00
                  0.231761D+00           1.0000000
            S   1   1.00
                  0.741675D-01           1.0000000
            P   1   1.00
                  0.160000D+01           1.0000000
            P   1   1.00
                  0.450000D+00           1.0000000
            D   1   1.00
                  0.125000D+01           1.0000000
            ****
            -C     0
            S   7   1.00
                  0.731999D+04           0.695369D-03
                  0.109818D+04           0.537138D-02
                  0.250014D+03           0.274734D-01
                  0.707586D+02           0.105078D+00
                  0.228595D+02           0.291262D+00
                  0.803936D+01           0.500000D+00
                  0.289309D+01           0.362224D+00
            S   2   1.00
                  0.521640D+01          -0.957844D-01
                  0.556124D+00           0.500000D+00
            S   1   1.00
                  0.228813D+00           1.0000000
            S   1   1.00
                  0.936338D-01           1.0000000
            P   4   1.00
                  0.339855D+02           0.818395D-02
                  0.772957D+01           0.586921D-01
                  0.224954D+01           0.222514D+00
                  0.767681D+00           0.500000D+00
            P   1   1.00
                  0.263283D+00           1.0000000
            P   1   1.00
                  0.848744D-01           1.0000000
            D   1   1.00
                  0.140000D+01           1.0000000
            D   1   1.00
                  0.450000D+00           1.0000000
            F   1   1.00
                  0.950000D+00           1.0000000
            ****
            -O     0
            S   7   1.00
                  0.135887D+05           0.665492D-03
                  0.203847D+04           0.514222D-02
                  0.464041D+03           0.263472D-01
                  0.131339D+03           0.101500D+00
                  0.425340D+02           0.285877D+00
                  0.150429D+02           0.500000D+00
                  0.546616D+01           0.368211D+00
            S   2   1.00
                  0.100915D+02          -0.100084D+00
                  0.110429D+01           0.500000D+00
            S   1   1.00
                  0.448082D+00           1.0000000
            S   1   1.00
                  0.175325D+00           1.0000000
            P   4   1.00
                  0.608220D+02           0.908253D-02
                  0.140332D+02           0.645878D-01
                  0.418244D+01           0.241502D+00
                  0.142490D+01           0.500000D+00
            P   1   1.00
                  0.478741D+00           1.0000000
            P   1   1.00
                  0.146257D+00           1.0000000
            D   1   1.00
                  0.220000D+01           1.0000000
            D   1   1.00
                  0.650000D+00           1.0000000
            F   1   1.00
                  0.110000D+01           1.0000000
            ****
            -N     0
            S   7   1.00
                  0.101643D+05           0.682757D-03
                  0.152481D+04           0.527488D-02
                  0.347119D+03           0.270037D-01
                  0.982389D+02           0.103673D+00
                  0.317799D+02           0.289575D+00
                  0.112240D+02           0.500000D+00
                  0.406611D+01           0.364621D+00
            S   2   1.00
                  0.747898D+01          -0.975681D-01
                  0.805040D+00           0.500000D+00
            S   1   1.00
                  0.324626D+00           1.0000000
            S   1   1.00
                  0.128132D+00           1.0000000
            P   4   1.00
                  0.482704D+02           0.829547D-02
                  0.110815D+02           0.596223D-01
                  0.326643D+01           0.227889D+00
                  0.111680D+01           0.500000D+00
            P   1   1.00
                  0.382049D+00           1.0000000
            P   1   1.00
                  0.121222D+00           1.0000000
            D   1   1.00
                  0.180000D+01           1.0000000
            D   1   1.00
                  0.550000D+00           1.0000000
            F   1   1.00
                  0.102000D+01           1.0000000
            ****
            -F     0
            S   7   1.00
                  0.174507D+05           0.655972D-03
                  0.261768D+04           0.506944D-02
                  0.595857D+03           0.259899D-01
                  0.168651D+03           0.100353D+00
                  0.546654D+02           0.284095D+00
                  0.193717D+02           0.500000D+00
                  0.706202D+01           0.370721D+00
            S   2   1.00
                  0.131197D+02          -0.101997D+00
                  0.145046D+01           0.500000D+00
            S   1   1.00
                  0.588255D+00           1.0000000
            S   1   1.00
                  0.227960D+00           1.0000000
            P   4   1.00
                  0.779407D+02           0.931135D-02
                  0.180425D+02           0.663964D-01
                  0.542342D+01           0.246386D+00
                  0.184876D+01           0.500000D+00
            P   1   1.00
                  0.617455D+00           1.0000000
            P   1   1.00
                  0.185496D+00           1.0000000
            D   1   1.00
                  0.280000D+01           1.0000000
            D   1   1.00
                  0.800000D+00           1.0000000
            F   1   1.00
                  0.120000D+01           1.0000000
            ****
            -Cl     0
            S   8   1.00
                  0.154272D+06           0.222473D-03
                  0.231232D+05           0.172590D-02
                  0.526257D+04           0.899286D-02
                  0.148995D+04           0.367724D-01
                  0.485417D+03           0.121446D+00
                  0.174634D+03           0.304148D+00
                  0.672393D+02           0.500000D+00
                  0.265780D+02           0.360252D+00
            S   3   1.00
                  0.131826D+03          -0.531330D-01
                  0.400703D+02          -0.233346D+00
                  0.789448D+01           0.500000D+00
            S   2   1.00
                  0.427711D+01           0.500000D+00
                  0.196233D+01           0.370517D+00
            S   1   1.00
                  0.520793D+00           1.0000000
            S   1   1.00
                  0.181633D+00           1.0000000
            P   7   1.00
                  0.124440D+04           0.988206D-03
                  0.295109D+03           0.829674D-02
                  0.947224D+02           0.430906D-01
                  0.352588D+02           0.148443D+00
                  0.144211D+02           0.344744D+00
                  0.610371D+01           0.500000D+00
                  0.258886D+01           0.348278D+00
            P   2   1.00
                  0.109447D+02          -0.196768D-01
                  0.104413D+01           0.500000D+00
            P   1   1.00
                  0.376184D+00           1.0000000
            P   1   1.00
                  0.120613D+00           1.0000000
            D   1   1.00
                  0.231000D+01           1.0000000
            D   1   1.00
                  0.520000D+00           1.0000000
            F   1   1.00
                  0.720000D+00           1.0000000
            ****
            -S     0
            S   8   1.00
                  0.134700D+06           0.226231D-03
                  0.201904D+05           0.175488D-02
                  0.459528D+04           0.914190D-02
                  0.130109D+04           0.373551D-01
                  0.423902D+03           0.123121D+00
                  0.152485D+03           0.306801D+00
                  0.586925D+02           0.500000D+00
                  0.231461D+02           0.354358D+00
            S   3   1.00
                  0.116327D+03          -0.491772D-01
                  0.352841D+02          -0.215962D+00
                  0.677831D+01           0.500000D+00
            S   2   1.00
                  0.360404D+01           0.500000D+00
                  0.164871D+01           0.366278D+00
            S   1   1.00
                  0.421821D+00           1.0000000
            S   1   1.00
                  0.147554D+00           1.0000000
            P   7   1.00
                  0.104863D+04           0.105273D-02
                  0.248717D+03           0.879338D-02
                  0.797887D+02           0.453358D-01
                  0.296023D+02           0.154476D+00
                  0.120627D+02           0.352366D+00
                  0.507628D+01           0.500000D+00
                  0.213375D+01           0.346429D+00
            P   2   1.00
                  0.928958D+01          -0.185932D-01
                  0.837819D+00           0.500000D+00
            P   1   1.00
                  0.301495D+00           1.0000000
            P   1   1.00
                  0.974740D-01           1.0000000
            D   1   1.00
                  0.210000D+01           1.0000000
            D   1   1.00
                  0.480000D+00           1.0000000
            F   1   1.00
                  0.660000D+00           1.0000000
            ****
            -Br     0
            S    10   1.00
                  0.233625D+07           0.532336D-04
                  0.349961D+06           0.413715D-03
                  0.796444D+05           0.217123D-02
                  0.225555D+05           0.910109D-02
                  0.735546D+04           0.323789D-01
                  0.265352D+04           0.988755D-01
                  0.103517D+04           0.248138D+00
                  0.422205D+03           0.474328D+00
                  0.180035D+03           0.500000D+00
                  0.793308D+02           0.187769D+00
            S    4   1.00
                  0.620834D+03          -0.226511D-01
                  0.190829D+03          -0.109497D+00
                  0.312505D+02           0.500000D+00
                  0.135270D+02           0.492812D+00
            S    2   1.00
                  0.216097D+02          -0.165418D+00
                  0.372566D+01           0.500000D+00
            S    1   1.00
                  0.169770D+01           1.0000000
            S    1   1.00
                  0.489332D+00           1.0000000
            S    1   1.00
                  0.175712D+00           1.0000000
            P    8   1.00
                  0.960829D+04           0.478974D-03
                  0.227618D+04           0.417853D-02
                  0.736723D+03           0.229315D-01
                  0.281579D+03           0.892653D-01
                  0.118395D+03           0.255288D+00
                  0.527481D+02           0.479074D+00
                  0.245098D+02           0.500000D+00
                  0.112009D+02           0.200944D+00
            P    4   1.00
                  0.587849D+02          -0.189674D-01
                  0.918962D+01           0.264104D+00
                  0.413895D+01           0.500000D+00
                  0.184225D+01           0.319316D+00
            P    1   1.00
                  0.713862D+00           1.0000000
            P    1   1.00
                  0.274232D+00           1.0000000
            P    1   1.00
                  0.944411D-01           1.0000000
            D    7   1.00
                  0.398470D+03           0.204066D-02
                  0.118967D+03           0.175171D-01
                  0.450197D+02           0.829708D-01
                  0.190320D+02           0.236284D+00
                  0.855686D+01           0.428468D+00
                  0.382950D+01           0.500000D+00
                  0.166291D+01           0.349360D+00
            D    1   1.00
                  0.672953D+00           1.0000000
            D    1   1.00
                  0.252000D+00           1.0000000
            F    1   1.00
                  0.530000D+00           1.0000000
            ****
            -Si     0
            S    8   1.00
                  0.996133D+05           0.235546D-03
                  0.149311D+05           0.182707D-02
                  0.339820D+04           0.951425D-02
                  0.962140D+03           0.388172D-01
                  0.313430D+03           0.127328D+00
                  0.112683D+03           0.313522D+00
                  0.433372D+02           0.500000D+00
                  0.170029D+02           0.340347D+00
            S    3   1.00
                  0.884208D+02          -0.404451D-01
                  0.266756D+02          -0.178059D+00
                  0.479640D+01           0.500000D+00
            S    2   1.00
                  0.239385D+01           0.500000D+00
                  0.108333D+01           0.338016D+00
            S    1   1.00
                  0.252420D+00           1.0000000
            S    1   1.00
                  0.891210D-01           1.0000000
            P    7   1.00
                  0.709901D+03           0.123028D-02
                  0.168426D+03           0.101366D-01
                  0.539946D+02           0.511840D-01
                  0.198646D+02           0.169967D+00
                  0.801369D+01           0.370717D+00
                  0.331870D+01           0.500000D+00
                  0.136112D+01           0.344128D+00
            P    2   1.00
                  0.622158D+01          -0.166609D-01
                  0.503049D+00           0.500000D+00
            P    1   1.00
                  0.179848D+00           1.0000000
            P    1   1.00
                  0.591912D-01           1.0000000
            D    1   1.00
                  0.168000D+01           1.0000000
            D    1   1.00
                  0.380000D+00           1.0000000
            F    1   1.00
                  0.540000D+00           1.0000000
            ****
            -P     0
            S    8   1.00
                  0.116416D+06           0.230715D-03
                  0.174500D+05           0.178960D-02
                  0.397149D+04           0.932116D-02
                  0.112447D+04           0.380591D-01
                  0.366347D+03           0.125148D+00
                  0.131757D+03           0.310022D+00
                  0.506988D+02           0.500000D+00
                  0.199436D+02           0.347528D+00
            S    3   1.00
                  0.101878D+03          -0.446755D-01
                  0.308249D+02          -0.196376D+00
                  0.573688D+01           0.500000D+00
            S    2   1.00
                  0.296868D+01           0.500000D+00
                  0.135315D+01           0.355098D+00
            S    1   1.00
                  0.332196D+00           1.0000000
            S    1   1.00
                  0.116229D+00           1.0000000
            P    7   1.00
                  0.873928D+03           0.112375D-02
                  0.207298D+03           0.933330D-02
                  0.664628D+02           0.477213D-01
                  0.245665D+02           0.160733D+00
                  0.996820D+01           0.359760D+00
                  0.416536D+01           0.500000D+00
                  0.173022D+01           0.346593D+00
            P    2   1.00
                  0.772530D+01          -0.175718D-01
                  0.657252D+00           0.500000D+00
            P    1   1.00
                  0.239903D+00           1.0000000
            P    1   1.00
                  0.800988D-01           1.0000000
            D    1   1.00
                  0.189000D+01           1.0000000
            D    1   1.00
                  0.430000D+00           1.0000000
            F    1   1.00
                  0.600000D+00           1.0000000
            ****
            
 Initial command:
 /usr/local/apps/g16_b01_avx/g16/l1.exe "/wrk/irikura/Gau-15850.inp" -scrdir="/wrk/irikura/"
 Entering Link 1 = /usr/local/apps/g16_b01_avx/g16/l1.exe PID=     15852.
  
 Copyright (c) 1988-2017, Gaussian, Inc.  All Rights Reserved.
  
 This is part of the Gaussian(R) 16 program.  It is based on
 the Gaussian(R) 09 system (copyright 2009, Gaussian, Inc.),
 the Gaussian(R) 03 system (copyright 2003, Gaussian, Inc.),
 the Gaussian(R) 98 system (copyright 1998, Gaussian, Inc.),
 the Gaussian(R) 94 system (copyright 1995, Gaussian, Inc.),
 the Gaussian 92(TM) system (copyright 1992, Gaussian, Inc.),
 the Gaussian 90(TM) system (copyright 1990, Gaussian, Inc.),
 the Gaussian 88(TM) system (copyright 1988, Gaussian, Inc.),
 the Gaussian 86(TM) system (copyright 1986, Carnegie Mellon
 University), and the Gaussian 82(TM) system (copyright 1983,
 Carnegie Mellon University). Gaussian is a federally registered
 trademark of Gaussian, Inc.
  
 This software contains proprietary and confidential information,
 including trade secrets, belonging to Gaussian, Inc.
  
 This software is provided under written license and may be
 used, copied, transmitted, or stored only in accord with that
 written license.
  
 The following legend is applicable only to US Government
 contracts under FAR:
  
                    RESTRICTED RIGHTS LEGEND
  
 Use, reproduction and disclosure by the US Government is
 subject to restrictions as set forth in subparagraphs (a)
 and (c) of the Commercial Computer Software - Restricted
 Rights clause in FAR 52.227-19.
  
 Gaussian, Inc.
 340 Quinnipiac St., Bldg. 40, Wallingford CT 06492
  
  
 ---------------------------------------------------------------
 Warning -- This program may not be used in any manner that
 competes with the business of Gaussian, Inc. or will provide
 assistance to any competitor of Gaussian, Inc.  The licensee
 of this program is prohibited from giving any competitor of
 Gaussian, Inc. access to this program.  By using this program,
 the user acknowledges that Gaussian, Inc. is engaged in the
 business of creating and licensing software in the field of
 computational chemistry and represents and warrants to the
 licensee that it is not a competitor of Gaussian, Inc. and that
 it will not use this program in any manner prohibited above.
 ---------------------------------------------------------------
  

 Cite this work as:
 Gaussian 16, Revision B.01,
 M. J. Frisch, G. W. Trucks, H. B. Schlegel, G. E. Scuseria, 
 M. A. Robb, J. R. Cheeseman, G. Scalmani, V. Barone, 
 G. A. Petersson, H. Nakatsuji, X. Li, M. Caricato, A. V. Marenich, 
 J. Bloino, B. G. Janesko, R. Gomperts, B. Mennucci, H. P. Hratchian, 
 J. V. Ortiz, A. F. Izmaylov, J. L. Sonnenberg, D. Williams-Young, 
 F. Ding, F. Lipparini, F. Egidi, J. Goings, B. Peng, A. Petrone, 
 T. Henderson, D. Ranasinghe, V. G. Zakrzewski, J. Gao, N. Rega, 
 G. Zheng, W. Liang, M. Hada, M. Ehara, K. Toyota, R. Fukuda, 
 J. Hasegawa, M. Ishida, T. Nakajima, Y. Honda, O. Kitao, H. Nakai, 
 T. Vreven, K. Throssell, J. A. Montgomery, Jr., J. E. Peralta, 
 F. Ogliaro, M. J. Bearpark, J. J. Heyd, E. N. Brothers, K. N. Kudin, 
 V. N. Staroverov, T. A. Keith, R. Kobayashi, J. Normand, 
 K. Raghavachari, A. P. Rendell, J. C. Burant, S. S. Iyengar, 
 J. Tomasi, M. Cossi, J. M. Millam, M. Klene, C. Adamo, R. Cammi, 
 J. W. Ochterski, R. L. Martin, K. Morokuma, O. Farkas, 
 J. B. Foresman, and D. J. Fox, Gaussian, Inc., Wallingford CT, 2016.
 
 ******************************************
 Gaussian 16:  ES64L-G16RevB.01 20-Dec-2017
                17-Jun-2022 
 ******************************************
 %mem=1000mw
 %nprocs=12
 Will use up to   12 processors via shared memory.
 --------------------
 # b3lyp/gen opt freq
 --------------------
 1/18=20,19=15,26=3,38=1/1,3;
 2/9=110,12=2,17=6,18=5,40=1/2;
 3/5=7,11=2,25=1,30=1,71=1,74=-5/1,2,3;
 4//1;
 5/5=2,38=5/2;
 6/7=2,8=2,9=2,10=2,28=1/1;
 7//1,2,3,16;
 1/18=20,19=15,26=3/3(2);
 2/9=110/2;
 99//99;
 2/9=110/2;
 3/5=7,6=1,11=2,25=1,30=1,71=1,74=-5,82=7/1,2,3;
 4/5=5,16=3,69=1/1;
 5/5=2,38=5/2;
 7//1,2,3,16;
 1/18=20,19=15,26=3/3(-5);
 2/9=110/2;
 6/7=2,8=2,9=2,10=2,19=2,28=1/1;
 99/9=1/99;
 -------------------------------
 tetracyclic C6H6, B3LYP/pcseg-2
 -------------------------------
 Symbolic Z-matrix:
 Charge =  0 Multiplicity = 1
 C                     0.        0.87762   0.77895 
 C                    -0.76004  -0.43881   0.77895 
 C                     0.76004  -0.43881   0.77895 
 C                     0.        0.87762  -0.77895 
 C                     0.76004  -0.43881  -0.77895 
 C                    -0.76004  -0.43881  -0.77895 
 H                     0.        1.67158   1.51187 
 H                    -1.44763  -0.83579   1.51187 
 H                     1.44763  -0.83579   1.51187 
 H                     0.        1.67158  -1.51187 
 H                     1.44763  -0.83579  -1.51187 
 H                    -1.44763  -0.83579  -1.51187 
 

 GradGradGradGradGradGradGradGradGradGradGradGradGradGradGradGradGradGrad
 Berny optimization.
 Initialization pass.
                           ----------------------------
                           !    Initial Parameters    !
                           ! (Angstroms and Degrees)  !
 --------------------------                            --------------------------
 ! Name  Definition              Value          Derivative Info.                !
 --------------------------------------------------------------------------------
 ! R1    R(1,2)                  1.5201         estimate D2E/DX2                !
 ! R2    R(1,3)                  1.5201         estimate D2E/DX2                !
 ! R3    R(1,4)                  1.5579         estimate D2E/DX2                !
 ! R4    R(1,7)                  1.0805         estimate D2E/DX2                !
 ! R5    R(2,3)                  1.5201         estimate D2E/DX2                !
 ! R6    R(2,6)                  1.5579         estimate D2E/DX2                !
 ! R7    R(2,8)                  1.0805         estimate D2E/DX2                !
 ! R8    R(3,5)                  1.5579         estimate D2E/DX2                !
 ! R9    R(3,9)                  1.0805         estimate D2E/DX2                !
 ! R10   R(4,5)                  1.5201         estimate D2E/DX2                !
 ! R11   R(4,6)                  1.5201         estimate D2E/DX2                !
 ! R12   R(4,10)                 1.0805         estimate D2E/DX2                !
 ! R13   R(5,6)                  1.5201         estimate D2E/DX2                !
 ! R14   R(5,11)                 1.0805         estimate D2E/DX2                !
 ! R15   R(6,12)                 1.0805         estimate D2E/DX2                !
 ! A1    A(2,1,4)               90.0            estimate D2E/DX2                !
 ! A2    A(2,1,7)              129.5198         estimate D2E/DX2                !
 ! A3    A(3,1,4)               90.0            estimate D2E/DX2                !
 ! A4    A(3,1,7)              129.5198         estimate D2E/DX2                !
 ! A5    A(4,1,7)              132.7107         estimate D2E/DX2                !
 ! A6    A(1,2,6)               90.0            estimate D2E/DX2                !
 ! A7    A(1,2,8)              129.5197         estimate D2E/DX2                !
 ! A8    A(3,2,6)               90.0            estimate D2E/DX2                !
 ! A9    A(3,2,8)              129.5198         estimate D2E/DX2                !
 ! A10   A(6,2,8)              132.7108         estimate D2E/DX2                !
 ! A11   A(1,3,5)               90.0            estimate D2E/DX2                !
 ! A12   A(1,3,9)              129.5197         estimate D2E/DX2                !
 ! A13   A(2,3,5)               90.0            estimate D2E/DX2                !
 ! A14   A(2,3,9)              129.5198         estimate D2E/DX2                !
 ! A15   A(5,3,9)              132.7108         estimate D2E/DX2                !
 ! A16   A(1,4,5)               90.0            estimate D2E/DX2                !
 ! A17   A(1,4,6)               90.0            estimate D2E/DX2                !
 ! A18   A(1,4,10)             132.7107         estimate D2E/DX2                !
 ! A19   A(5,4,10)             129.5198         estimate D2E/DX2                !
 ! A20   A(6,4,10)             129.5198         estimate D2E/DX2                !
 ! A21   A(3,5,4)               90.0            estimate D2E/DX2                !
 ! A22   A(3,5,6)               90.0            estimate D2E/DX2                !
 ! A23   A(3,5,11)             132.7108         estimate D2E/DX2                !
 ! A24   A(4,5,11)             129.5197         estimate D2E/DX2                !
 ! A25   A(6,5,11)             129.5198         estimate D2E/DX2                !
 ! A26   A(2,6,4)               90.0            estimate D2E/DX2                !
 ! A27   A(2,6,5)               90.0            estimate D2E/DX2                !
 ! A28   A(2,6,12)             132.7108         estimate D2E/DX2                !
 ! A29   A(4,6,12)             129.5197         estimate D2E/DX2                !
 ! A30   A(5,6,12)             129.5198         estimate D2E/DX2                !
 ! D1    D(4,1,2,6)              0.0            estimate D2E/DX2                !
 ! D2    D(4,1,2,8)           -151.5582         estimate D2E/DX2                !
 ! D3    D(7,1,2,6)            151.5582         estimate D2E/DX2                !
 ! D4    D(7,1,2,8)              0.0            estimate D2E/DX2                !
 ! D5    D(4,1,3,5)              0.0            estimate D2E/DX2                !
 ! D6    D(4,1,3,9)            151.5582         estimate D2E/DX2                !
 ! D7    D(7,1,3,5)           -151.5582         estimate D2E/DX2                !
 ! D8    D(7,1,3,9)              0.0            estimate D2E/DX2                !
 ! D9    D(2,1,4,5)            -60.0            estimate D2E/DX2                !
 ! D10   D(2,1,4,6)              0.0            estimate D2E/DX2                !
 ! D11   D(2,1,4,10)           150.0            estimate D2E/DX2                !
 ! D12   D(3,1,4,5)              0.0            estimate D2E/DX2                !
 ! D13   D(3,1,4,6)             60.0            estimate D2E/DX2                !
 ! D14   D(3,1,4,10)          -150.0            estimate D2E/DX2                !
 ! D15   D(7,1,4,5)            150.0            estimate D2E/DX2                !
 ! D16   D(7,1,4,6)           -150.0            estimate D2E/DX2                !
 ! D17   D(7,1,4,10)             0.0            estimate D2E/DX2                !
 ! D18   D(6,2,3,5)              0.0            estimate D2E/DX2                !
 ! D19   D(6,2,3,9)           -151.5583         estimate D2E/DX2                !
 ! D20   D(8,2,3,5)            151.5583         estimate D2E/DX2                !
 ! D21   D(8,2,3,9)              0.0            estimate D2E/DX2                !
 ! D22   D(1,2,6,4)              0.0            estimate D2E/DX2                !
 ! D23   D(1,2,6,5)             60.0            estimate D2E/DX2                !
 ! D24   D(1,2,6,12)          -149.9999         estimate D2E/DX2                !
 ! D25   D(3,2,6,4)            -60.0            estimate D2E/DX2                !
 ! D26   D(3,2,6,5)              0.0            estimate D2E/DX2                !
 ! D27   D(3,2,6,12)           150.0001         estimate D2E/DX2                !
 ! D28   D(8,2,6,4)            149.9999         estimate D2E/DX2                !
 ! D29   D(8,2,6,5)           -150.0001         estimate D2E/DX2                !
 ! D30   D(8,2,6,12)             0.0            estimate D2E/DX2                !
 ! D31   D(1,3,5,4)              0.0            estimate D2E/DX2                !
 ! D32   D(1,3,5,6)            -60.0            estimate D2E/DX2                !
 ! D33   D(1,3,5,11)           149.9999         estimate D2E/DX2                !
 ! D34   D(2,3,5,4)             60.0            estimate D2E/DX2                !
 ! D35   D(2,3,5,6)              0.0            estimate D2E/DX2                !
 ! D36   D(2,3,5,11)          -150.0001         estimate D2E/DX2                !
 ! D37   D(9,3,5,4)           -149.9999         estimate D2E/DX2                !
 ! D38   D(9,3,5,6)            150.0001         estimate D2E/DX2                !
 ! D39   D(9,3,5,11)             0.0            estimate D2E/DX2                !
 ! D40   D(1,4,5,3)              0.0            estimate D2E/DX2                !
 ! D41   D(1,4,5,11)          -151.5582         estimate D2E/DX2                !
 ! D42   D(10,4,5,3)           151.5582         estimate D2E/DX2                !
 ! D43   D(10,4,5,11)            0.0            estimate D2E/DX2                !
 ! D44   D(1,4,6,2)              0.0            estimate D2E/DX2                !
 ! D45   D(1,4,6,12)           151.5582         estimate D2E/DX2                !
 ! D46   D(10,4,6,2)          -151.5582         estimate D2E/DX2                !
 ! D47   D(10,4,6,12)            0.0            estimate D2E/DX2                !
 ! D48   D(3,5,6,2)              0.0            estimate D2E/DX2                !
 ! D49   D(3,5,6,12)          -151.5583         estimate D2E/DX2                !
 ! D50   D(11,5,6,2)           151.5583         estimate D2E/DX2                !
 ! D51   D(11,5,6,12)            0.0            estimate D2E/DX2                !
 --------------------------------------------------------------------------------
 Trust Radius=3.00D-01 FncErr=1.00D-07 GrdErr=1.00D-06 EigMax=2.50D+02 EigMin=1.00D-04
 Number of steps in this run=    100 maximum allowed number of steps=    100.
 GradGradGradGradGradGradGradGradGradGradGradGradGradGradGradGradGradGrad

                          Input orientation:                          
 ---------------------------------------------------------------------
 Center     Atomic      Atomic             Coordinates (Angstroms)
 Number     Number       Type             X           Y           Z
 ---------------------------------------------------------------------
      1          6           0        0.000000    0.877621    0.778948
      2          6           0       -0.760042   -0.438811    0.778948
      3          6           0        0.760042   -0.438811    0.778948
      4          6           0        0.000000    0.877621   -0.778948
      5          6           0        0.760042   -0.438811   -0.778948
      6          6           0       -0.760042   -0.438811   -0.778948
      7          1           0        0.000000    1.671577    1.511865
      8          1           0       -1.447628   -0.835788    1.511865
      9          1           0        1.447628   -0.835788    1.511865
     10          1           0        0.000000    1.671577   -1.511865
     11          1           0        1.447628   -0.835788   -1.511865
     12          1           0       -1.447628   -0.835788   -1.511865
 ---------------------------------------------------------------------
                    Distance matrix (angstroms):
                    1          2          3          4          5
     1  C    0.000000
     2  C    1.520085   0.000000
     3  C    1.520085   1.520084   0.000000
     4  C    1.557896   2.176625   2.176625   0.000000
     5  C    2.176625   2.176625   1.557896   1.520085   0.000000
     6  C    2.176625   1.557896   2.176625   1.520085   1.520084
     7  H    1.080525   2.359781   2.359781   2.424498   3.206123
     8  H    2.359781   1.080524   2.359781   3.206122   3.206123
     9  H    2.359781   2.359781   1.080524   3.206122   2.424498
    10  H    2.424498   3.206123   3.206123   1.080525   2.359781
    11  H    3.206122   3.206123   2.424498   2.359781   1.080524
    12  H    3.206122   2.424498   3.206123   2.359781   2.359781
                    6          7          8          9         10
     6  C    0.000000
     7  H    3.206123   0.000000
     8  H    2.424498   2.895256   0.000000
     9  H    3.206123   2.895256   2.895256   0.000000
    10  H    2.359781   3.023730   4.186341   4.186341   0.000000
    11  H    2.359781   4.186341   4.186341   3.023730   2.895256
    12  H    1.080524   4.186341   3.023730   4.186341   2.895256
                   11         12
    11  H    0.000000
    12  H    2.895256   0.000000
 Stoichiometry    C6H6
 Framework group  D3H[3SGV(C2H2)]
 Deg. of freedom     4
 Full point group                 D3H     NOp  12
 Largest Abelian subgroup         C2V     NOp   4
 Largest concise Abelian subgroup C2V     NOp   4
                         Standard orientation:                         
 ---------------------------------------------------------------------
 Center     Atomic      Atomic             Coordinates (Angstroms)
 Number     Number       Type             X           Y           Z
 ---------------------------------------------------------------------
      1          6           0        0.000000    0.877621    0.778948
      2          6           0       -0.760042   -0.438811    0.778948
      3          6           0        0.760042   -0.438811    0.778948
      4          6           0        0.000000    0.877621   -0.778948
      5          6           0        0.760042   -0.438811   -0.778948
      6          6           0       -0.760042   -0.438811   -0.778948
      7          1           0        0.000000    1.671577    1.511865
      8          1           0       -1.447628   -0.835789    1.511865
      9          1           0        1.447628   -0.835789    1.511865
     10          1           0        0.000000    1.671577   -1.511865
     11          1           0        1.447628   -0.835789   -1.511865
     12          1           0       -1.447628   -0.835789   -1.511865
 ---------------------------------------------------------------------
 Rotational constants (GHZ):           6.9850059           5.3944818           5.3944818
 General basis read from cards:  (5D, 7F)
 There are    85 symmetry adapted cartesian basis functions of A1  symmetry.
 There are    65 symmetry adapted cartesian basis functions of A2  symmetry.
 There are    65 symmetry adapted cartesian basis functions of B1  symmetry.
 There are    85 symmetry adapted cartesian basis functions of B2  symmetry.
 There are    74 symmetry adapted basis functions of A1  symmetry.
 There are    58 symmetry adapted basis functions of A2  symmetry.
 There are    58 symmetry adapted basis functions of B1  symmetry.
 There are    74 symmetry adapted basis functions of B2  symmetry.
   264 basis functions,   414 primitive gaussians,   300 cartesian basis functions
    21 alpha electrons       21 beta electrons
       nuclear repulsion energy       220.2909024774 Hartrees.
 NAtoms=   12 NActive=   12 NUniq=    2 SFac= 4.00D+00 NAtFMM=   60 NAOKFM=F Big=F
 Integral buffers will be    131072 words long.
 Raffenetti 2 integral format.
 Two-electron integral symmetry is turned on.
 One-electron integrals computed using PRISM.
 NBasis=   264 RedAO= T EigKep=  6.20D-05  NBF=    74    58    58    74
 NBsUse=   264 1.00D-06 EigRej= -1.00D+00 NBFU=    74    58    58    74
 ExpMin= 7.42D-02 ExpMax= 7.32D+03 ExpMxC= 2.50D+02 IAcc=3 IRadAn=         5 AccDes= 0.00D+00
 Harris functional with IExCor=  402 and IRadAn=       5 diagonalized for initial guess.
 HarFok:  IExCor=  402 AccDes= 0.00D+00 IRadAn=         5 IDoV= 1 UseB2=F ITyADJ=14
 ICtDFT=  3500011 ScaDFX=  1.000000  1.000000  1.000000  1.000000
 FoFCou: FMM=F IPFlag=           0 FMFlag=      100000 FMFlg1=           0
         NFxFlg=           0 DoJE=T BraDBF=F KetDBF=T FulRan=T
         wScrn=  0.000000 ICntrl=       500 IOpCl=  0 I1Cent=   200000004 NGrid=           0
         NMat0=    1 NMatS0=      1 NMatT0=    0 NMatD0=    1 NMtDS0=    0 NMtDT0=    0
 Petite list used in FoFCou.
 Initial guess orbital symmetries:
       Occupied  (A1') (A2") (E') (E') (E") (E") (A1') (A2") (E')
                 (E') (A1') (E") (E") (A1') (A2") (E') (E') (E')
                 (E') (E") (E")
       Virtual   (A2') (A2") (A1') (E') (E') (A2") (E") (E") (E')
                 (E') (A1") (A1') (E") (E") (A1') (E') (E') (E")
                 (E") (A2") (E') (E') (A2") (E") (E") (A2') (A1')
                 (E') (E') (A2") (A1") (E') (E') (E") (E") (E")
                 (E") (A1') (E') (E') (E") (E") (A2") (E") (E")
                 (A1') (E') (E') (A1') (A2') (A1') (A2") (E') (E')
                 (E") (E") (E') (E') (E") (E") (A2") (A1") (E')
                 (E') (A2") (E') (E') (E") (E") (A1') (A2') (E')
                 (E') (E") (E") (A1') (A2") (E") (E") (E') (E')
                 (E') (E') (E") (E") (A1") (A2') (A1') (A2") (A1')
                 (E') (E') (E") (E") (E') (E') (E") (E") (A1')
                 (A2") (A1") (E") (E") (E") (E") (E') (E') (A2')
                 (A2") (A1') (E") (E") (A1") (E') (E') (A2") (A1')
                 (E') (E') (A2") (A1') (E") (E") (E') (E') (A1')
                 (A2") (E') (E') (E') (E') (A2') (E") (E") (E")
                 (E") (E') (E') (A2") (A1') (E") (E") (E") (E")
                 (E') (E') (A1") (A2') (E') (E') (E") (E") (A2")
                 (A1') (A1') (A2') (A2") (E') (E') (E') (E') (A2")
                 (A1") (E") (E") (E') (E') (E') (E') (E") (E")
                 (A2") (A2') (E") (E") (A1') (E") (E") (A1") (A1")
                 (E') (E') (E') (E') (A1') (E") (E") (A2') (E")
                 (E") (E") (E") (A1') (A1") (E") (E") (A2") (E')
                 (E') (A2') (E') (E') (A2') (A2") (A1") (E") (E")
                 (E') (E') (E") (E") (A2") (E") (E") (E') (E')
                 (A1") (A1') (A1') (E') (E') (A2") (E") (E") (E')
                 (E') (A2') (A2") (A1') (E") (E") (E') (E') (A1")
                 (E") (E") (E") (E") (E') (E') (A2") (E") (E")
 The electronic state of the initial guess is 1-A1'.
 Keep R1 ints in memory in symmetry-blocked form, NReq=764919415.
 Requested convergence on RMS density matrix=1.00D-08 within 128 cycles.
 Requested convergence on MAX density matrix=1.00D-06.
 Requested convergence on             energy=1.00D-06.
 No special actions if energy rises.
 Integral accuracy reduced to 1.0D-05 until final iterations.
 Initial convergence to 1.0D-05 achieved.  Increase integral accuracy.
 SCF Done:  E(RB3LYP) =  -232.139664818     A.U. after   10 cycles
            NFock= 10  Conv=0.75D-08     -V/T= 2.0045

 **********************************************************************

            Population analysis using the SCF Density.

 **********************************************************************

 Orbital symmetries:
       Occupied  (A1') (A2") (E') (E') (E") (E") (A1') (A2") (E')
                 (E') (A1') (E") (E") (A1') (A2") (E') (E') (E')
                 (E') (E") (E")
       Virtual   (A1') (A2") (E') (E') (A2') (E") (E") (A2") (E')
                 (E') (A1') (E") (E") (A1') (E') (E') (A1") (E")
                 (E") (A2") (A2") (A2') (A1') (E') (E') (E") (E")
                 (E') (E') (A2") (A1") (E') (E') (E") (E") (A1')
                 (E") (E") (E') (E') (E") (E") (A2") (E") (E")
                 (A1') (E') (E') (A1') (A2') (A1') (A2") (E') (E')
                 (E") (E") (E") (E") (E') (E') (A2") (A1") (E')
                 (E') (E") (E") (A2") (A1') (E') (E') (A2') (E')
                 (E') (E") (E") (A1') (A2") (E') (E') (E") (E")
                 (E") (E") (E') (E') (A1") (A2') (A2") (A1') (E')
                 (E') (A1') (E") (E") (E') (E') (E") (E") (A1')
                 (A1") (A2") (E") (E") (E") (E") (A2') (E') (E')
                 (A2") (A1') (E") (E") (A1") (E') (E') (A2") (A1')
                 (E') (E') (A2") (E') (E') (A1') (E") (E") (A1')
                 (A2") (E') (E') (E') (E') (A2') (E") (E") (E")
                 (E") (E') (E') (A2") (A1') (E") (E") (E") (E")
                 (A1") (E') (E') (A2') (E') (E') (E") (E") (A1')
                 (A2") (A1') (A2') (E') (E') (A2") (E') (E') (A2")
                 (A1") (E") (E") (E') (E') (A2') (E') (E') (E")
                 (E") (A2") (E") (E") (A1') (A1") (E") (E") (E')
                 (E') (A1") (E') (E') (A1') (E") (E") (E") (E")
                 (A2') (E") (E") (A1') (A1") (E") (E") (A2") (E')
                 (E') (A2') (E') (E') (A1") (A2') (A2") (E") (E")
                 (E') (E') (E") (E") (A2") (E") (E") (E') (E')
                 (A1") (A1') (E') (E') (A1') (A2") (E") (E") (A2')
                 (E') (E') (A2") (A1') (E") (E") (E') (E') (A1")
                 (E") (E") (E") (E") (E') (E') (A2") (E") (E")
 The electronic state is 1-A1'.
 Alpha  occ. eigenvalues --  -10.18214 -10.18196 -10.18177 -10.18177 -10.18158
 Alpha  occ. eigenvalues --  -10.18158  -0.96625  -0.75086  -0.64236  -0.64236
 Alpha  occ. eigenvalues --   -0.53884  -0.52039  -0.52039  -0.43887  -0.43464
 Alpha  occ. eigenvalues --   -0.40237  -0.40237  -0.29632  -0.29632  -0.23394
 Alpha  occ. eigenvalues --   -0.23394
 Alpha virt. eigenvalues --    0.02347   0.03039   0.04526   0.04526   0.06367
 Alpha virt. eigenvalues --    0.07008   0.07008   0.08160   0.10920   0.10920
 Alpha virt. eigenvalues --    0.13870   0.17695   0.17695   0.17762   0.19030
 Alpha virt. eigenvalues --    0.19030   0.19205   0.21664   0.21664   0.26257
 Alpha virt. eigenvalues --    0.29248   0.30365   0.30597   0.30798   0.30798
 Alpha virt. eigenvalues --    0.31037   0.31037   0.33214   0.33214   0.33662
 Alpha virt. eigenvalues --    0.37323   0.37594   0.37594   0.38917   0.38917
 Alpha virt. eigenvalues --    0.42517   0.43818   0.43818   0.51677   0.51677
 Alpha virt. eigenvalues --    0.58074   0.58074   0.63593   0.68364   0.68364
 Alpha virt. eigenvalues --    0.79814   0.81581   0.81581   0.87485   0.88538
 Alpha virt. eigenvalues --    0.91906   0.92110   0.93133   0.93133   0.97967
 Alpha virt. eigenvalues --    0.97967   1.01358   1.01358   1.02340   1.02340
 Alpha virt. eigenvalues --    1.02805   1.04398   1.10711   1.10711   1.17281
 Alpha virt. eigenvalues --    1.17281   1.17800   1.19126   1.20903   1.20903
 Alpha virt. eigenvalues --    1.29384   1.29536   1.29536   1.32839   1.32839
 Alpha virt. eigenvalues --    1.39252   1.42818   1.44745   1.44745   1.44898
 Alpha virt. eigenvalues --    1.44898   1.58832   1.58832   1.60551   1.60551
 Alpha virt. eigenvalues --    1.64634   1.66944   1.68025   1.74939   1.78505
 Alpha virt. eigenvalues --    1.78505   1.79183   1.83606   1.83606   1.85286
 Alpha virt. eigenvalues --    1.85286   1.89451   1.89451   1.90370   1.94529
 Alpha virt. eigenvalues --    1.95818   1.98443   1.98443   2.02002   2.02002
 Alpha virt. eigenvalues --    2.11322   2.13964   2.13964   2.31674   2.33419
 Alpha virt. eigenvalues --    2.33781   2.33781   2.36526   2.43642   2.43642
 Alpha virt. eigenvalues --    2.45801   2.88168   2.92313   2.92313   3.02927
 Alpha virt. eigenvalues --    3.06750   3.06750   3.06825   3.06825   3.06825
 Alpha virt. eigenvalues --    3.28067   3.28630   3.30704   3.30704   3.38602
 Alpha virt. eigenvalues --    3.38602   3.40827   3.43348   3.43348   3.54572
 Alpha virt. eigenvalues --    3.54572   3.65944   3.65944   3.73246   3.81475
 Alpha virt. eigenvalues --    3.85589   3.85589   3.85940   3.85940   3.91223
 Alpha virt. eigenvalues --    3.93494   3.93494   3.94384   3.99712   3.99712
 Alpha virt. eigenvalues --    4.00086   4.00086   4.00764   4.02009   4.10361
 Alpha virt. eigenvalues --    4.12510   4.15668   4.15668   4.17071   4.20042
 Alpha virt. eigenvalues --    4.20042   4.21071   4.27841   4.28779   4.28779
 Alpha virt. eigenvalues --    4.29626   4.29626   4.31696   4.31716   4.31716
 Alpha virt. eigenvalues --    4.32433   4.32433   4.34397   4.37942   4.37942
 Alpha virt. eigenvalues --    4.45952   4.48171   4.49634   4.49634   4.53122
 Alpha virt. eigenvalues --    4.53122   4.55094   4.56434   4.56434   4.58729
 Alpha virt. eigenvalues --    4.60257   4.60257   4.63506   4.63506   4.65566
 Alpha virt. eigenvalues --    4.72815   4.72815   4.77249   4.83738   4.88852
 Alpha virt. eigenvalues --    4.88852   4.88962   4.89258   4.89258   4.89980
 Alpha virt. eigenvalues --    4.97657   4.97657   5.06276   5.06591   5.08990
 Alpha virt. eigenvalues --    5.09318   5.09318   5.11596   5.11596   5.18424
 Alpha virt. eigenvalues --    5.18424   5.28710   5.38218   5.38218   5.44302
 Alpha virt. eigenvalues --    5.44302   5.45489   5.48441   5.59384   5.59384
 Alpha virt. eigenvalues --    5.59799   5.63174   5.72144   5.72144   5.80392
 Alpha virt. eigenvalues --    5.80789   5.80789   5.93633   6.01809   6.03400
 Alpha virt. eigenvalues --    6.03400   6.13377   6.13377   6.27293   6.29457
 Alpha virt. eigenvalues --    6.29457   6.45199   6.45199   7.44376   7.44376
 Alpha virt. eigenvalues --    7.52566  14.81929  14.81929
          Condensed to atoms (all electrons):
               1          2          3          4          5          6
     1  C    5.041011   0.262739   0.262739   0.218758  -0.046047  -0.046047
     2  C    0.262739   5.041011   0.262739  -0.046047  -0.046047   0.218758
     3  C    0.262739   0.262739   5.041011  -0.046047   0.218758  -0.046047
     4  C    0.218758  -0.046047  -0.046047   5.041011   0.262739   0.262739
     5  C   -0.046047  -0.046047   0.218758   0.262739   5.041011   0.262739
     6  C   -0.046047   0.218758  -0.046047   0.262739   0.262739   5.041011
     7  H    0.406672  -0.018365  -0.018365  -0.036055   0.008935   0.008935
     8  H   -0.018365   0.406672  -0.018365   0.008935   0.008935  -0.036055
     9  H   -0.018365  -0.018365   0.406672   0.008935  -0.036055   0.008935
    10  H   -0.036055   0.008935   0.008935   0.406672  -0.018365  -0.018365
    11  H    0.008935   0.008935  -0.036055  -0.018365   0.406672  -0.018365
    12  H    0.008935  -0.036055   0.008935  -0.018365  -0.018365   0.406672
               7          8          9         10         11         12
     1  C    0.406672  -0.018365  -0.018365  -0.036055   0.008935   0.008935
     2  C   -0.018365   0.406672  -0.018365   0.008935   0.008935  -0.036055
     3  C   -0.018365  -0.018365   0.406672   0.008935  -0.036055   0.008935
     4  C   -0.036055   0.008935   0.008935   0.406672  -0.018365  -0.018365
     5  C    0.008935   0.008935  -0.036055  -0.018365   0.406672  -0.018365
     6  C    0.008935  -0.036055   0.008935  -0.018365  -0.018365   0.406672
     7  H    0.616993  -0.004012  -0.004012  -0.005769   0.000066   0.000066
     8  H   -0.004012   0.616993  -0.004012   0.000066   0.000066  -0.005769
     9  H   -0.004012  -0.004012   0.616993   0.000066  -0.005769   0.000066
    10  H   -0.005769   0.000066   0.000066   0.616993  -0.004012  -0.004012
    11  H    0.000066   0.000066  -0.005769  -0.004012   0.616993  -0.004012
    12  H    0.000066  -0.005769   0.000066  -0.004012  -0.004012   0.616993
 Mulliken charges:
               1
     1  C   -0.044911
     2  C   -0.044911
     3  C   -0.044911
     4  C   -0.044911
     5  C   -0.044911
     6  C   -0.044911
     7  H    0.044911
     8  H    0.044911
     9  H    0.044911
    10  H    0.044911
    11  H    0.044911
    12  H    0.044911
 Sum of Mulliken charges =  -0.00000
 Mulliken charges with hydrogens summed into heavy atoms:
               1
     1  C   -0.000000
     2  C   -0.000000
     3  C   -0.000000
     4  C   -0.000000
     5  C   -0.000000
     6  C   -0.000000
 Electronic spatial extent (au):  <R**2>=            363.9678
 Charge=             -0.0000 electrons
 Dipole moment (field-independent basis, Debye):
    X=             -0.0000    Y=             -0.0000    Z=              0.0000  Tot=              0.0000
 Quadrupole moment (field-independent basis, Debye-Ang):
   XX=            -35.8603   YY=            -35.8603   ZZ=            -33.3288
   XY=              0.0000   XZ=             -0.0000   YZ=              0.0000
 Traceless Quadrupole moment (field-independent basis, Debye-Ang):
   XX=             -0.8438   YY=             -0.8438   ZZ=              1.6877
   XY=              0.0000   XZ=             -0.0000   YZ=              0.0000
 Octapole moment (field-independent basis, Debye-Ang**2):
  XXX=              0.0000  YYY=              4.4530  ZZZ=              0.0000  XYY=              0.0000
  XXY=             -4.4530  XXZ=              0.0000  XZZ=             -0.0000  YZZ=              0.0000
  YYZ=             -0.0000  XYZ=              0.0000
 Hexadecapole moment (field-independent basis, Debye-Ang**3):
 XXXX=           -149.4835 YYYY=           -149.4835 ZZZZ=           -206.4869 XXXY=              0.0000
 XXXZ=             -0.0000 YYYX=              0.0000 YYYZ=              0.0000 ZZZX=             -0.0000
 ZZZY=             -0.0000 XXYY=            -49.8278 XXZZ=            -56.1050 YYZZ=            -56.1050
 XXYZ=              0.0000 YYXZ=             -0.0000 ZZXY=              0.0000
 N-N= 2.202909024774D+02 E-N=-9.788863956968D+02  KE= 2.311112000033D+02
 Symmetry A1   KE= 7.894072341490D+01
 Symmetry A2   KE= 3.742628403043D+01
 Symmetry B1   KE= 3.983311804543D+01
 Symmetry B2   KE= 7.491107451254D+01
 Calling FoFJK, ICntrl=      2127 FMM=F ISym2X=1 I1Cent= 0 IOpClX= 0 NMat=1 NMatS=1 NMatT=0.
 ***** Axes restored to original set *****
 -------------------------------------------------------------------
 Center     Atomic                   Forces (Hartrees/Bohr)
 Number     Number              X              Y              Z
 -------------------------------------------------------------------
      1        6           0.000000000   -0.000324559    0.000041552
      2        6           0.000281076    0.000162280    0.000041552
      3        6          -0.000281076    0.000162280    0.000041552
      4        6          -0.000000000   -0.000324559   -0.000041552
      5        6          -0.000281076    0.000162280   -0.000041552
      6        6           0.000281076    0.000162280   -0.000041552
      7        1           0.000000000   -0.000797108   -0.000740175
      8        1           0.000690316    0.000398554   -0.000740175
      9        1          -0.000690316    0.000398554   -0.000740175
     10        1           0.000000000   -0.000797108    0.000740175
     11        1          -0.000690316    0.000398554    0.000740175
     12        1           0.000690316    0.000398554    0.000740175
 -------------------------------------------------------------------
 Cartesian Forces:  Max     0.000797108 RMS     0.000463736

 GradGradGradGradGradGradGradGradGradGradGradGradGradGradGradGradGradGrad
 Berny optimization.
 FormGI is forming the generalized inverse of G from B-inverse, IUseBI=4.
 Internal  Forces:  Max     0.001087764 RMS     0.000339730
 Search for a local minimum.
 Step number   1 out of a maximum of  100
 All quantities printed in internal units (Hartrees-Bohrs-Radians)
 Mixed Optimization -- En-DIIS/RFO-DIIS
 Second derivative matrix not updated -- first step.
 ITU=  0
     Eigenvalues ---    0.01076   0.01350   0.01350   0.01657   0.01680
     Eigenvalues ---    0.02029   0.02029   0.06343   0.06343   0.06582
     Eigenvalues ---    0.06582   0.09867   0.09873   0.13795   0.13795
     Eigenvalues ---    0.19165   0.19165   0.21548   0.21548   0.25083
     Eigenvalues ---    0.25083   0.26991   0.28481   0.30358   0.35931
     Eigenvalues ---    0.35931   0.35931   0.35931   0.35931   0.35931
 RFO step:  Lambda=-3.34725910D-05 EMin= 1.07557532D-02
 Linear search not attempted -- first point.
 Iteration  1 RMS(Cart)=  0.00128325 RMS(Int)=  0.00000001
 Iteration  2 RMS(Cart)=  0.00000001 RMS(Int)=  0.00000000
 ClnCor:  largest displacement from symmetrization is 9.10D-09 for atom     9.
 Variable       Old X    -DE/DX   Delta X   Delta X   Delta X     New X
                                 (Linear)    (Quad)   (Total)
    R1        2.87254  -0.00065   0.00000  -0.00213  -0.00213   2.87041
    R2        2.87254  -0.00065   0.00000  -0.00213  -0.00213   2.87041
    R3        2.94400  -0.00070   0.00000  -0.00259  -0.00259   2.94141
    R4        2.04190  -0.00109   0.00000  -0.00303  -0.00303   2.03887
    R5        2.87254  -0.00065   0.00000  -0.00213  -0.00213   2.87041
    R6        2.94400  -0.00070   0.00000  -0.00259  -0.00259   2.94141
    R7        2.04190  -0.00109   0.00000  -0.00303  -0.00303   2.03887
    R8        2.94400  -0.00070   0.00000  -0.00259  -0.00259   2.94141
    R9        2.04190  -0.00109   0.00000  -0.00303  -0.00303   2.03887
   R10        2.87254  -0.00065   0.00000  -0.00213  -0.00213   2.87041
   R11        2.87254  -0.00065   0.00000  -0.00213  -0.00213   2.87041
   R12        2.04190  -0.00109   0.00000  -0.00303  -0.00303   2.03887
   R13        2.87254  -0.00065   0.00000  -0.00213  -0.00213   2.87041
   R14        2.04190  -0.00109   0.00000  -0.00303  -0.00303   2.03887
   R15        2.04190  -0.00109   0.00000  -0.00303  -0.00303   2.03887
    A1        1.57080  -0.00000   0.00000  -0.00000   0.00000   1.57080
    A2        2.26055   0.00000   0.00000   0.00001   0.00001   2.26056
    A3        1.57080  -0.00000   0.00000  -0.00000   0.00000   1.57080
    A4        2.26055   0.00000   0.00000   0.00001   0.00001   2.26056
    A5        2.31624  -0.00000   0.00000  -0.00002  -0.00002   2.31622
    A6        1.57080   0.00000   0.00000   0.00000   0.00000   1.57080
    A7        2.26055   0.00000   0.00000   0.00001   0.00001   2.26056
    A8        1.57080  -0.00000   0.00000  -0.00000   0.00000   1.57080
    A9        2.26055   0.00000   0.00000   0.00001   0.00001   2.26056
   A10        2.31624  -0.00000   0.00000  -0.00002  -0.00002   2.31622
   A11        1.57080   0.00000   0.00000   0.00000   0.00000   1.57080
   A12        2.26055   0.00000   0.00000   0.00001   0.00001   2.26056
   A13        1.57080   0.00000   0.00000   0.00000   0.00000   1.57080
   A14        2.26055   0.00000   0.00000   0.00001   0.00001   2.26056
   A15        2.31624  -0.00000   0.00000  -0.00002  -0.00002   2.31622
   A16        1.57080  -0.00000   0.00000  -0.00000   0.00000   1.57080
   A17        1.57080  -0.00000   0.00000   0.00000   0.00000   1.57080
   A18        2.31624  -0.00000   0.00000  -0.00002  -0.00002   2.31622
   A19        2.26055   0.00000   0.00000   0.00001   0.00001   2.26056
   A20        2.26055   0.00000   0.00000   0.00001   0.00001   2.26056
   A21        1.57080   0.00000   0.00000   0.00000   0.00000   1.57080
   A22        1.57080  -0.00000   0.00000  -0.00000   0.00000   1.57080
   A23        2.31624  -0.00000   0.00000  -0.00002  -0.00002   2.31622
   A24        2.26055   0.00000   0.00000   0.00001   0.00001   2.26056
   A25        2.26055   0.00000   0.00000   0.00001   0.00001   2.26056
   A26        1.57080   0.00000   0.00000   0.00000   0.00000   1.57080
   A27        1.57080   0.00000   0.00000   0.00000   0.00000   1.57080
   A28        2.31624  -0.00000   0.00000  -0.00002  -0.00002   2.31622
   A29        2.26055   0.00000   0.00000   0.00001   0.00001   2.26056
   A30        2.26055   0.00000   0.00000   0.00001   0.00001   2.26056
    D1       -0.00000  -0.00000   0.00000   0.00000   0.00000   0.00000
    D2       -2.64519   0.00000   0.00000   0.00002   0.00002  -2.64517
    D3        2.64519  -0.00000   0.00000  -0.00002  -0.00002   2.64517
    D4        0.00000   0.00000   0.00000  -0.00000   0.00000   0.00000
    D5        0.00000   0.00000   0.00000   0.00000   0.00000   0.00000
    D6        2.64519  -0.00000   0.00000  -0.00002  -0.00002   2.64517
    D7       -2.64519   0.00000   0.00000   0.00002   0.00002  -2.64517
    D8        0.00000  -0.00000   0.00000   0.00000  -0.00000   0.00000
    D9       -1.04720   0.00000   0.00000  -0.00000   0.00000  -1.04720
   D10        0.00000   0.00000   0.00000  -0.00000   0.00000   0.00000
   D11        2.61799   0.00000   0.00000  -0.00000   0.00000   2.61799
   D12        0.00000  -0.00000   0.00000  -0.00000   0.00000   0.00000
   D13        1.04720  -0.00000   0.00000  -0.00000   0.00000   1.04720
   D14       -2.61799  -0.00000   0.00000  -0.00000   0.00000  -2.61799
   D15        2.61799   0.00000   0.00000  -0.00000   0.00000   2.61799
   D16       -2.61799  -0.00000   0.00000  -0.00000  -0.00000  -2.61799
   D17        0.00000  -0.00000   0.00000  -0.00000   0.00000   0.00000
   D18       -0.00000   0.00000   0.00000   0.00000   0.00000   0.00000
   D19       -2.64519   0.00000   0.00000   0.00002   0.00002  -2.64517
   D20        2.64519  -0.00000   0.00000  -0.00002  -0.00002   2.64517
   D21        0.00000  -0.00000   0.00000  -0.00000   0.00000   0.00000
   D22        0.00000   0.00000   0.00000  -0.00000   0.00000   0.00000
   D23        1.04720   0.00000   0.00000  -0.00000   0.00000   1.04720
   D24       -2.61799  -0.00000   0.00000  -0.00000   0.00000  -2.61799
   D25       -1.04720  -0.00000   0.00000  -0.00000   0.00000  -1.04720
   D26        0.00000  -0.00000   0.00000  -0.00000   0.00000   0.00000
   D27        2.61799  -0.00000   0.00000  -0.00000   0.00000   2.61799
   D28        2.61799   0.00000   0.00000   0.00000   0.00000   2.61799
   D29       -2.61799   0.00000   0.00000   0.00000   0.00000  -2.61799
   D30        0.00000   0.00000   0.00000   0.00000   0.00000   0.00000
   D31        0.00000  -0.00000   0.00000  -0.00000   0.00000   0.00000
   D32       -1.04720  -0.00000   0.00000  -0.00000   0.00000  -1.04720
   D33        2.61799   0.00000   0.00000   0.00000   0.00000   2.61799
   D34        1.04720   0.00000   0.00000  -0.00000   0.00000   1.04720
   D35        0.00000  -0.00000   0.00000  -0.00000   0.00000   0.00000
   D36       -2.61799   0.00000   0.00000   0.00000  -0.00000  -2.61799
   D37       -2.61799  -0.00000   0.00000  -0.00000   0.00000  -2.61799
   D38        2.61799  -0.00000   0.00000  -0.00000  -0.00000   2.61799
   D39        0.00000   0.00000   0.00000  -0.00000   0.00000   0.00000
   D40        0.00000   0.00000   0.00000   0.00000   0.00000   0.00000
   D41       -2.64519   0.00000   0.00000   0.00002   0.00002  -2.64517
   D42        2.64519  -0.00000   0.00000  -0.00002  -0.00002   2.64517
   D43       -0.00000   0.00000   0.00000  -0.00000   0.00000   0.00000
   D44       -0.00000  -0.00000   0.00000   0.00000   0.00000   0.00000
   D45        2.64519  -0.00000   0.00000  -0.00002  -0.00002   2.64517
   D46       -2.64519   0.00000   0.00000   0.00002   0.00002  -2.64517
   D47       -0.00000  -0.00000   0.00000   0.00000   0.00000   0.00000
   D48       -0.00000   0.00000   0.00000   0.00000   0.00000   0.00000
   D49       -2.64519   0.00000   0.00000   0.00002   0.00002  -2.64517
   D50        2.64519  -0.00000   0.00000  -0.00002  -0.00002   2.64517
   D51       -0.00000   0.00000   0.00000   0.00000   0.00000   0.00000
         Item               Value     Threshold  Converged?
 Maximum Force            0.001088     0.000450     NO 
 RMS     Force            0.000340     0.000300     NO 
 Maximum Displacement     0.003430     0.001800     NO 
 RMS     Displacement     0.001283     0.001200     NO 
 Predicted change in Energy=-1.673630D-05
 GradGradGradGradGradGradGradGradGradGradGradGradGradGradGradGradGradGrad

                          Input orientation:                          
 ---------------------------------------------------------------------
 Center     Atomic      Atomic             Coordinates (Angstroms)
 Number     Number       Type             X           Y           Z
 ---------------------------------------------------------------------
      1          6           0        0.000000    0.876969    0.778263
      2          6           0       -0.759478   -0.438485    0.778263
      3          6           0        0.759478   -0.438485    0.778263
      4          6           0        0.000000    0.876969   -0.778263
      5          6           0        0.759478   -0.438485   -0.778263
      6          6           0       -0.759478   -0.438485   -0.778263
      7          1           0        0.000000    1.669762    1.510079
      8          1           0       -1.446056   -0.834881    1.510079
      9          1           0        1.446056   -0.834881    1.510079
     10          1           0        0.000000    1.669762   -1.510079
     11          1           0        1.446056   -0.834881   -1.510079
     12          1           0       -1.446056   -0.834881   -1.510079
 ---------------------------------------------------------------------
                    Distance matrix (angstroms):
                    1          2          3          4          5
     1  C    0.000000
     2  C    1.518956   0.000000
     3  C    1.518956   1.518956   0.000000
     4  C    1.556526   2.174857   2.174857   0.000000
     5  C    2.174857   2.174857   1.556526   1.518956   0.000000
     6  C    2.174857   1.556526   2.174857   1.518956   1.518956
     7  H    1.078923   2.357343   2.357343   2.421782   3.202815
     8  H    2.357343   1.078923   2.357343   3.202815   3.202815
     9  H    2.357343   2.357343   1.078923   3.202815   2.421782
    10  H    2.421782   3.202815   3.202815   1.078923   2.357343
    11  H    3.202815   3.202815   2.421782   2.357343   1.078923
    12  H    3.202815   2.421782   3.202815   2.357343   2.357343
                    6          7          8          9         10
     6  C    0.000000
     7  H    3.202815   0.000000
     8  H    2.421782   2.892113   0.000000
     9  H    3.202815   2.892113   2.892113   0.000000
    10  H    2.357343   3.020158   4.181587   4.181587   0.000000
    11  H    2.357343   4.181587   4.181587   3.020158   2.892113
    12  H    1.078923   4.181587   3.020158   4.181587   2.892113
                   11         12
    11  H    0.000000
    12  H    2.892113   0.000000
 Stoichiometry    C6H6
 Framework group  D3H[3SGV(C2H2)]
 Deg. of freedom     4
 Full point group                 D3H     NOp  12
 Largest Abelian subgroup         C2V     NOp   4
 Largest concise Abelian subgroup C2V     NOp   4
                         Standard orientation:                         
 ---------------------------------------------------------------------
 Center     Atomic      Atomic             Coordinates (Angstroms)
 Number     Number       Type             X           Y           Z
 ---------------------------------------------------------------------
      1          6           0        0.000000    0.876970    0.778263
      2          6           0       -0.759478   -0.438485    0.778263
      3          6           0        0.759478   -0.438485    0.778263
      4          6           0        0.000000    0.876970   -0.778263
      5          6           0        0.759478   -0.438485   -0.778263
      6          6           0       -0.759478   -0.438485   -0.778263
      7          1           0        0.000000    1.669762    1.510079
      8          1           0       -1.446056   -0.834881    1.510079
      9          1           0        1.446056   -0.834881    1.510079
     10          1           0        0.000000    1.669762   -1.510079
     11          1           0        1.446056   -0.834881   -1.510079
     12          1           0       -1.446056   -0.834881   -1.510079
 ---------------------------------------------------------------------
 Rotational constants (GHZ):           6.9965132           5.4042256           5.4042256
 Basis read from rwf:  (5D, 7F)
 There are    85 symmetry adapted cartesian basis functions of A1  symmetry.
 There are    65 symmetry adapted cartesian basis functions of A2  symmetry.
 There are    65 symmetry adapted cartesian basis functions of B1  symmetry.
 There are    85 symmetry adapted cartesian basis functions of B2  symmetry.
 There are    74 symmetry adapted basis functions of A1  symmetry.
 There are    58 symmetry adapted basis functions of A2  symmetry.
 There are    58 symmetry adapted basis functions of B1  symmetry.
 There are    74 symmetry adapted basis functions of B2  symmetry.
   264 basis functions,   414 primitive gaussians,   300 cartesian basis functions
    21 alpha electrons       21 beta electrons
       nuclear repulsion energy       220.4883960493 Hartrees.
 NAtoms=   12 NActive=   12 NUniq=    2 SFac= 4.00D+00 NAtFMM=   60 NAOKFM=F Big=F
 Integral buffers will be    131072 words long.
 Raffenetti 2 integral format.
 Two-electron integral symmetry is turned on.
 One-electron integrals computed using PRISM.
 NBasis=   264 RedAO= T EigKep=  6.17D-05  NBF=    74    58    58    74
 NBsUse=   264 1.00D-06 EigRej= -1.00D+00 NBFU=    74    58    58    74
 Initial guess from the checkpoint file:  "/wrk/irikura/Gau-15852.chk"
 B after Tr=     0.000000    0.000000   -0.000000
         Rot=    1.000000    0.000000    0.000000    0.000000 Ang=   0.00 deg.
 Initial guess orbital symmetries:
       Occupied  (A1') (A2") (E') (E') (E") (E") (A1') (A2") (E')
                 (E') (A1') (E") (E") (A1') (A2") (E') (E') (E')
                 (E') (E") (E")
       Virtual   (A1') (A2") (E') (E') (A2') (E") (E") (A2") (E')
                 (E') (A1') (E") (E") (A1') (E') (E') (A1") (E")
                 (E") (A2") (A2") (A2') (A1') (E') (E') (E") (E")
                 (E') (E') (A2") (A1") (E') (E') (E") (E") (A1')
                 (E") (E") (E') (E') (E") (E") (A2") (E") (E")
                 (A1') (E') (E') (A1') (A2') (A1') (A2") (E') (E')
                 (E") (E") (E") (E") (E') (E') (A2") (A1") (E')
                 (E') (E") (E") (A2") (A1') (E') (E') (A2') (E')
                 (E') (E") (E") (A1') (A2") (E') (E') (E") (E")
                 (E") (E") (E') (E') (A1") (A2') (A2") (A1') (E')
                 (E') (A1') (E") (E") (E') (E') (E") (E") (A1')
                 (A1") (A2") (E") (E") (E") (E") (A2') (E') (E')
                 (A2") (A1') (E") (E") (A1") (E') (E') (A2") (A1')
                 (E') (E') (A2") (E') (E') (A1') (E") (E") (A1')
                 (A2") (E') (E') (E') (E') (A2') (E") (E") (E")
                 (E") (E') (E') (A2") (A1') (E") (E") (E") (E")
                 (A1") (E') (E') (A2') (E') (E') (E") (E") (A1')
                 (A2") (A1') (A2') (E') (E') (A2") (E') (E') (A2")
                 (A1") (E") (E") (E') (E') (A2') (E') (E') (E")
                 (E") (A2") (E") (E") (A1') (A1") (E") (E") (E')
                 (E') (A1") (E') (E') (A1') (E") (E") (E") (E")
                 (A2') (E") (E") (A1') (A1") (E") (E") (A2") (E')
                 (E') (A2') (E') (E') (A1") (A2') (A2") (E") (E")
                 (E') (E') (E") (E") (A2") (E") (E") (E') (E')
                 (A1") (A1') (E') (E') (A1') (A2") (E") (E") (A2')
                 (E') (E') (A2") (A1') (E") (E") (E') (E') (A1")
                 (E") (E") (E") (E") (E') (E') (A2") (E") (E")
 Keep R1 ints in memory in symmetry-blocked form, NReq=764919415.
 Requested convergence on RMS density matrix=1.00D-08 within 128 cycles.
 Requested convergence on MAX density matrix=1.00D-06.
 Requested convergence on             energy=1.00D-06.
 No special actions if energy rises.
 SCF Done:  E(RB3LYP) =  -232.139682097     A.U. after    6 cycles
            NFock=  6  Conv=0.79D-08     -V/T= 2.0043
 Calling FoFJK, ICntrl=      2127 FMM=F ISym2X=1 I1Cent= 0 IOpClX= 0 NMat=1 NMatS=1 NMatT=0.
 ***** Axes restored to original set *****
 -------------------------------------------------------------------
 Center     Atomic                   Forces (Hartrees/Bohr)
 Number     Number              X              Y              Z
 -------------------------------------------------------------------
      1        6          -0.000000000   -0.000172984    0.000012276
      2        6           0.000149809    0.000086492    0.000012276
      3        6          -0.000149809    0.000086492    0.000012276
      4        6          -0.000000000   -0.000172984   -0.000012276
      5        6          -0.000149809    0.000086492   -0.000012276
      6        6           0.000149809    0.000086492   -0.000012276
      7        1           0.000000000    0.000002406    0.000004306
      8        1          -0.000002083   -0.000001203    0.000004306
      9        1           0.000002083   -0.000001203    0.000004306
     10        1           0.000000000    0.000002406   -0.000004306
     11        1           0.000002083   -0.000001203   -0.000004306
     12        1          -0.000002083   -0.000001203   -0.000004306
 -------------------------------------------------------------------
 Cartesian Forces:  Max     0.000172984 RMS     0.000070827

 GradGradGradGradGradGradGradGradGradGradGradGradGradGradGradGradGradGrad
 Berny optimization.
 Using GEDIIS/GDIIS optimizer.
 FormGI is forming the generalized inverse of G from B-inverse, IUseBI=4.
 Internal  Forces:  Max     0.000098483 RMS     0.000024826
 Search for a local minimum.
 Step number   2 out of a maximum of  100
 All quantities printed in internal units (Hartrees-Bohrs-Radians)
 Mixed Optimization -- En-DIIS/RFO-DIIS
 Swapping is turned off.
 Update second derivatives using D2CorX and points    1    2
 DE= -1.73D-05 DEPred=-1.67D-05 R= 1.03D+00
 TightC=F SS=  1.41D+00  RLast= 1.01D-02 DXNew= 5.0454D-01 3.0355D-02
 Trust test= 1.03D+00 RLast= 1.01D-02 DXMaxT set to 3.00D-01
 ITU=  1  0
     Eigenvalues ---    0.01076   0.01350   0.01350   0.01657   0.01680
     Eigenvalues ---    0.02029   0.02029   0.06342   0.06342   0.06582
     Eigenvalues ---    0.06582   0.09867   0.09873   0.13785   0.13785
     Eigenvalues ---    0.19156   0.19156   0.21548   0.21548   0.25081
     Eigenvalues ---    0.25081   0.27083   0.28369   0.28479   0.35931
     Eigenvalues ---    0.35931   0.35931   0.35931   0.35931   0.37124
 En-DIIS/RFO-DIIS/Sim-DIIS IScMMF=       -3 using points:     2    1
 RFO step:  Lambda=-2.06989657D-07.
 DidBck=F Rises=F RFO-DIIS coefs:    1.03980   -0.03980
 Iteration  1 RMS(Cart)=  0.00007400 RMS(Int)=  0.00000000
 Iteration  2 RMS(Cart)=  0.00000000 RMS(Int)=  0.00000001
 ClnCor:  largest displacement from symmetrization is 1.31D-08 for atom     8.
 Variable       Old X    -DE/DX   Delta X   Delta X   Delta X     New X
                                 (Linear)    (Quad)   (Total)
    R1        2.87041  -0.00010  -0.00008  -0.00026  -0.00035   2.87006
    R2        2.87041  -0.00010  -0.00008  -0.00026  -0.00035   2.87006
    R3        2.94141   0.00002  -0.00010   0.00015   0.00005   2.94146
    R4        2.03887   0.00000  -0.00012   0.00012  -0.00000   2.03887
    R5        2.87041  -0.00010  -0.00008  -0.00026  -0.00035   2.87006
    R6        2.94141   0.00002  -0.00010   0.00015   0.00005   2.94146
    R7        2.03887   0.00000  -0.00012   0.00012  -0.00000   2.03887
    R8        2.94141   0.00002  -0.00010   0.00015   0.00005   2.94146
    R9        2.03887   0.00000  -0.00012   0.00012  -0.00000   2.03887
   R10        2.87041  -0.00010  -0.00008  -0.00026  -0.00035   2.87006
   R11        2.87041  -0.00010  -0.00008  -0.00026  -0.00035   2.87006
   R12        2.03887   0.00000  -0.00012   0.00012  -0.00000   2.03887
   R13        2.87041  -0.00010  -0.00008  -0.00026  -0.00035   2.87006
   R14        2.03887   0.00000  -0.00012   0.00012  -0.00000   2.03887
   R15        2.03887   0.00000  -0.00012   0.00012  -0.00000   2.03887
    A1        1.57080   0.00000  -0.00000   0.00000   0.00000   1.57080
    A2        2.26056  -0.00000   0.00000  -0.00001  -0.00001   2.26055
    A3        1.57080   0.00000  -0.00000   0.00000   0.00000   1.57080
    A4        2.26056  -0.00000   0.00000  -0.00001  -0.00001   2.26055
    A5        2.31622   0.00000  -0.00000   0.00001   0.00001   2.31623
    A6        1.57080  -0.00000  -0.00000  -0.00000   0.00000   1.57080
    A7        2.26056  -0.00000   0.00000  -0.00001  -0.00001   2.26055
    A8        1.57080   0.00000  -0.00000   0.00000   0.00000   1.57080
    A9        2.26056  -0.00000   0.00000  -0.00001  -0.00001   2.26055
   A10        2.31622   0.00000  -0.00000   0.00001   0.00001   2.31623
   A11        1.57080  -0.00000  -0.00000  -0.00000   0.00000   1.57080
   A12        2.26056  -0.00000   0.00000  -0.00001  -0.00001   2.26055
   A13        1.57080   0.00000  -0.00000   0.00000  -0.00000   1.57080
   A14        2.26056  -0.00000   0.00000  -0.00001  -0.00001   2.26055
   A15        2.31622   0.00000  -0.00000   0.00001   0.00001   2.31623
   A16        1.57080  -0.00000  -0.00000  -0.00000   0.00000   1.57080
   A17        1.57080  -0.00000  -0.00000  -0.00000   0.00000   1.57080
   A18        2.31622   0.00000  -0.00000   0.00001   0.00001   2.31623
   A19        2.26056  -0.00000   0.00000  -0.00001  -0.00001   2.26055
   A20        2.26056  -0.00000   0.00000  -0.00001  -0.00001   2.26055
   A21        1.57080   0.00000  -0.00000   0.00000   0.00000   1.57080
   A22        1.57080  -0.00000  -0.00000   0.00000   0.00000   1.57080
   A23        2.31622   0.00000  -0.00000   0.00001   0.00001   2.31623
   A24        2.26056  -0.00000   0.00000  -0.00001  -0.00001   2.26055
   A25        2.26056  -0.00000   0.00000  -0.00001  -0.00001   2.26055
   A26        1.57080   0.00000  -0.00000   0.00000   0.00000   1.57080
   A27        1.57080  -0.00000  -0.00000  -0.00000   0.00000   1.57080
   A28        2.31622   0.00000  -0.00000   0.00001   0.00001   2.31623
   A29        2.26056  -0.00000   0.00000  -0.00001  -0.00001   2.26055
   A30        2.26056  -0.00000   0.00000  -0.00001  -0.00001   2.26055
    D1       -0.00000  -0.00000   0.00000  -0.00000   0.00000   0.00000
    D2       -2.64517  -0.00000   0.00000  -0.00001  -0.00001  -2.64518
    D3        2.64517   0.00000  -0.00000   0.00001   0.00001   2.64518
    D4       -0.00000   0.00000  -0.00000   0.00000   0.00000   0.00000
    D5        0.00000   0.00000   0.00000   0.00000  -0.00000   0.00000
    D6        2.64517   0.00000  -0.00000   0.00001   0.00001   2.64518
    D7       -2.64517  -0.00000   0.00000  -0.00001  -0.00001  -2.64518
    D8        0.00000  -0.00000  -0.00000   0.00000  -0.00000   0.00000
    D9       -1.04720   0.00000   0.00000   0.00000   0.00000  -1.04720
   D10        0.00000   0.00000   0.00000   0.00000   0.00000   0.00000
   D11        2.61799   0.00000   0.00000   0.00000   0.00000   2.61799
   D12        0.00000  -0.00000   0.00000  -0.00000   0.00000   0.00000
   D13        1.04720  -0.00000  -0.00000  -0.00000   0.00000   1.04720
   D14       -2.61799  -0.00000   0.00000   0.00000   0.00000  -2.61799
   D15        2.61799   0.00000   0.00000  -0.00000   0.00000   2.61799
   D16       -2.61799  -0.00000   0.00000  -0.00000   0.00000  -2.61799
   D17        0.00000   0.00000   0.00000   0.00000  -0.00000   0.00000
   D18       -0.00000   0.00000   0.00000  -0.00000   0.00000   0.00000
   D19       -2.64517  -0.00000   0.00000  -0.00001  -0.00001  -2.64518
   D20        2.64517   0.00000  -0.00000   0.00001   0.00001   2.64518
   D21        0.00000   0.00000   0.00000   0.00000   0.00000   0.00000
   D22        0.00000   0.00000   0.00000   0.00000   0.00000   0.00000
   D23        1.04720   0.00000  -0.00000   0.00000   0.00000   1.04720
   D24       -2.61799  -0.00000   0.00000   0.00000   0.00000  -2.61799
   D25       -1.04720  -0.00000   0.00000  -0.00000   0.00000  -1.04720
   D26        0.00000  -0.00000   0.00000   0.00000   0.00000   0.00000
   D27        2.61799  -0.00000   0.00000   0.00000   0.00000   2.61799
   D28        2.61799   0.00000   0.00000  -0.00000   0.00000   2.61799
   D29       -2.61799   0.00000   0.00000  -0.00000   0.00000  -2.61799
   D30        0.00000  -0.00000   0.00000  -0.00000   0.00000   0.00000
   D31        0.00000  -0.00000   0.00000  -0.00000   0.00000   0.00000
   D32       -1.04720  -0.00000   0.00000  -0.00000   0.00000  -1.04720
   D33        2.61799   0.00000   0.00000   0.00000   0.00000   2.61799
   D34        1.04720   0.00000  -0.00000  -0.00000   0.00000   1.04720
   D35        0.00000  -0.00000   0.00000   0.00000   0.00000   0.00000
   D36       -2.61799   0.00000   0.00000   0.00000   0.00000  -2.61799
   D37       -2.61799  -0.00000   0.00000  -0.00000   0.00000  -2.61799
   D38        2.61799  -0.00000   0.00000  -0.00000  -0.00000   2.61799
   D39        0.00000   0.00000   0.00000   0.00000  -0.00000   0.00000
   D40        0.00000   0.00000   0.00000   0.00000  -0.00000   0.00000
   D41       -2.64517  -0.00000   0.00000  -0.00001  -0.00001  -2.64518
   D42        2.64517   0.00000  -0.00000   0.00001   0.00001   2.64518
   D43        0.00000   0.00000   0.00000  -0.00000   0.00000   0.00000
   D44       -0.00000  -0.00000   0.00000  -0.00000   0.00000   0.00000
   D45        2.64517   0.00000  -0.00000   0.00001   0.00001   2.64518
   D46       -2.64517  -0.00000   0.00000  -0.00001  -0.00001  -2.64518
   D47        0.00000  -0.00000   0.00000  -0.00000  -0.00000   0.00000
   D48       -0.00000   0.00000   0.00000  -0.00000   0.00000   0.00000
   D49       -2.64517  -0.00000   0.00000  -0.00001  -0.00001  -2.64518
   D50        2.64517   0.00000  -0.00000   0.00001   0.00001   2.64518
   D51       -0.00000  -0.00000   0.00000  -0.00000  -0.00000  -0.00000
         Item               Value     Threshold  Converged?
 Maximum Force            0.000098     0.000450     YES
 RMS     Force            0.000025     0.000300     YES
 Maximum Displacement     0.000214     0.001800     YES
 RMS     Displacement     0.000074     0.001200     YES
 Predicted change in Energy=-1.034949D-07
 Optimization completed.
    -- Stationary point found.
                           ----------------------------
                           !   Optimized Parameters   !
                           ! (Angstroms and Degrees)  !
 --------------------------                            --------------------------
 ! Name  Definition              Value          Derivative Info.                !
 --------------------------------------------------------------------------------
 ! R1    R(1,2)                  1.519          -DE/DX =   -0.0001              !
 ! R2    R(1,3)                  1.519          -DE/DX =   -0.0001              !
 ! R3    R(1,4)                  1.5565         -DE/DX =    0.0                 !
 ! R4    R(1,7)                  1.0789         -DE/DX =    0.0                 !
 ! R5    R(2,3)                  1.519          -DE/DX =   -0.0001              !
 ! R6    R(2,6)                  1.5565         -DE/DX =    0.0                 !
 ! R7    R(2,8)                  1.0789         -DE/DX =    0.0                 !
 ! R8    R(3,5)                  1.5565         -DE/DX =    0.0                 !
 ! R9    R(3,9)                  1.0789         -DE/DX =    0.0                 !
 ! R10   R(4,5)                  1.519          -DE/DX =   -0.0001              !
 ! R11   R(4,6)                  1.519          -DE/DX =   -0.0001              !
 ! R12   R(4,10)                 1.0789         -DE/DX =    0.0                 !
 ! R13   R(5,6)                  1.519          -DE/DX =   -0.0001              !
 ! R14   R(5,11)                 1.0789         -DE/DX =    0.0                 !
 ! R15   R(6,12)                 1.0789         -DE/DX =    0.0                 !
 ! A1    A(2,1,4)               90.0            -DE/DX =    0.0                 !
 ! A2    A(2,1,7)              129.5206         -DE/DX =    0.0                 !
 ! A3    A(3,1,4)               90.0            -DE/DX =    0.0                 !
 ! A4    A(3,1,7)              129.5206         -DE/DX =    0.0                 !
 ! A5    A(4,1,7)              132.7097         -DE/DX =    0.0                 !
 ! A6    A(1,2,6)               90.0            -DE/DX =    0.0                 !
 ! A7    A(1,2,8)              129.5206         -DE/DX =    0.0                 !
 ! A8    A(3,2,6)               90.0            -DE/DX =    0.0                 !
[...]
 --------------------------                            --------------------------
 ! Name  Definition              Value          Derivative Info.                !
 --------------------------------------------------------------------------------
 ! R1    R(1,2)                  1.519          -DE/DX =   -0.0001              !
 ! R2    R(1,3)                  1.519          -DE/DX =   -0.0001              !
 ! R3    R(1,4)                  1.5565         -DE/DX =    0.0                 !
 ! R4    R(1,7)                  1.0789         -DE/DX =    0.0                 !
 ! R5    R(2,3)                  1.519          -DE/DX =   -0.0001              !
 ! R6    R(2,6)                  1.5565         -DE/DX =    0.0                 !
 ! R7    R(2,8)                  1.0789         -DE/DX =    0.0                 !
 ! R8    R(3,5)                  1.5565         -DE/DX =    0.0                 !
 ! R9    R(3,9)                  1.0789         -DE/DX =    0.0                 !
 ! R10   R(4,5)                  1.519          -DE/DX =   -0.0001              !
 ! R11   R(4,6)                  1.519          -DE/DX =   -0.0001              !
 ! R12   R(4,10)                 1.0789         -DE/DX =    0.0                 !
 ! R13   R(5,6)                  1.519          -DE/DX =   -0.0001              !
 ! R14   R(5,11)                 1.0789         -DE/DX =    0.0                 !
 ! R15   R(6,12)                 1.0789         -DE/DX =    0.0                 !
 ! A1    A(2,1,4)               90.0            -DE/DX =    0.0                 !
 ! A2    A(2,1,7)              129.5206         -DE/DX =    0.0                 !
 ! A3    A(3,1,4)               90.0            -DE/DX =    0.0                 !
 ! A4    A(3,1,7)              129.5206         -DE/DX =    0.0                 !
 ! A5    A(4,1,7)              132.7097         -DE/DX =    0.0                 !
 ! A6    A(1,2,6)               90.0            -DE/DX =    0.0                 !
 ! A7    A(1,2,8)              129.5206         -DE/DX =    0.0                 !
 ! A8    A(3,2,6)               90.0            -DE/DX =    0.0                 !
 ! A9    A(3,2,8)              129.5206         -DE/DX =    0.0                 !
 ! A10   A(6,2,8)              132.7097         -DE/DX =    0.0                 !
 ! A11   A(1,3,5)               90.0            -DE/DX =    0.0                 !
 ! A12   A(1,3,9)              129.5206         -DE/DX =    0.0                 !
 ! A13   A(2,3,5)               90.0            -DE/DX =    0.0                 !
 ! A14   A(2,3,9)              129.5206         -DE/DX =    0.0                 !
 ! A15   A(5,3,9)              132.7097         -DE/DX =    0.0                 !
 ! A16   A(1,4,5)               90.0            -DE/DX =    0.0                 !
 ! A17   A(1,4,6)               90.0            -DE/DX =    0.0                 !
 ! A18   A(1,4,10)             132.7097         -DE/DX =    0.0                 !
 ! A19   A(5,4,10)             129.5206         -DE/DX =    0.0                 !
 ! A20   A(6,4,10)             129.5206         -DE/DX =    0.0                 !
 ! A21   A(3,5,4)               90.0            -DE/DX =    0.0                 !
 ! A22   A(3,5,6)               90.0            -DE/DX =    0.0                 !
 ! A23   A(3,5,11)             132.7097         -DE/DX =    0.0                 !
 ! A24   A(4,5,11)             129.5206         -DE/DX =    0.0                 !
 ! A25   A(6,5,11)             129.5206         -DE/DX =    0.0                 !
 ! A26   A(2,6,4)               90.0            -DE/DX =    0.0                 !
 ! A27   A(2,6,5)               90.0            -DE/DX =    0.0                 !
 ! A28   A(2,6,12)             132.7097         -DE/DX =    0.0                 !
 ! A29   A(4,6,12)             129.5206         -DE/DX =    0.0                 !
 ! A30   A(5,6,12)             129.5206         -DE/DX =    0.0                 !
 ! D1    D(4,1,2,6)              0.0            -DE/DX =    0.0                 !
 ! D2    D(4,1,2,8)           -151.5573         -DE/DX =    0.0                 !
 ! D3    D(7,1,2,6)            151.5573         -DE/DX =    0.0                 !
 ! D4    D(7,1,2,8)              0.0            -DE/DX =    0.0                 !
 ! D5    D(4,1,3,5)              0.0            -DE/DX =    0.0                 !
 ! D6    D(4,1,3,9)            151.5573         -DE/DX =    0.0                 !
 ! D7    D(7,1,3,5)           -151.5573         -DE/DX =    0.0                 !
 ! D8    D(7,1,3,9)              0.0            -DE/DX =    0.0                 !
 ! D9    D(2,1,4,5)            -60.0            -DE/DX =    0.0                 !
 ! D10   D(2,1,4,6)              0.0            -DE/DX =    0.0                 !
 ! D11   D(2,1,4,10)           150.0            -DE/DX =    0.0                 !
 ! D12   D(3,1,4,5)              0.0            -DE/DX =    0.0                 !
 ! D13   D(3,1,4,6)             60.0            -DE/DX =    0.0                 !
 ! D14   D(3,1,4,10)          -150.0            -DE/DX =    0.0                 !
 ! D15   D(7,1,4,5)            150.0            -DE/DX =    0.0                 !
 ! D16   D(7,1,4,6)           -150.0            -DE/DX =    0.0                 !
 ! D17   D(7,1,4,10)             0.0            -DE/DX =    0.0                 !
 ! D18   D(6,2,3,5)              0.0            -DE/DX =    0.0                 !
 ! D19   D(6,2,3,9)           -151.5573         -DE/DX =    0.0                 !
 ! D20   D(8,2,3,5)            151.5573         -DE/DX =    0.0                 !
 ! D21   D(8,2,3,9)              0.0            -DE/DX =    0.0                 !
 ! D22   D(1,2,6,4)              0.0            -DE/DX =    0.0                 !
 ! D23   D(1,2,6,5)             60.0            -DE/DX =    0.0                 !
 ! D24   D(1,2,6,12)          -150.0            -DE/DX =    0.0                 !
 ! D25   D(3,2,6,4)            -60.0            -DE/DX =    0.0                 !
 ! D26   D(3,2,6,5)              0.0            -DE/DX =    0.0                 !
 ! D27   D(3,2,6,12)           150.0            -DE/DX =    0.0                 !
 ! D28   D(8,2,6,4)            150.0            -DE/DX =    0.0                 !
 ! D29   D(8,2,6,5)           -150.0            -DE/DX =    0.0                 !
 ! D30   D(8,2,6,12)             0.0            -DE/DX =    0.0                 !
 ! D31   D(1,3,5,4)              0.0            -DE/DX =    0.0                 !
 ! D32   D(1,3,5,6)            -60.0            -DE/DX =    0.0                 !
 ! D33   D(1,3,5,11)           150.0            -DE/DX =    0.0                 !
 ! D34   D(2,3,5,4)             60.0            -DE/DX =    0.0                 !
 ! D35   D(2,3,5,6)              0.0            -DE/DX =    0.0                 !
 ! D36   D(2,3,5,11)          -150.0            -DE/DX =    0.0                 !
 ! D37   D(9,3,5,4)           -150.0            -DE/DX =    0.0                 !
 ! D38   D(9,3,5,6)            150.0            -DE/DX =    0.0                 !
 ! D39   D(9,3,5,11)             0.0            -DE/DX =    0.0                 !
 ! D40   D(1,4,5,3)              0.0            -DE/DX =    0.0                 !
 ! D41   D(1,4,5,11)          -151.5573         -DE/DX =    0.0                 !
 ! D42   D(10,4,5,3)           151.5573         -DE/DX =    0.0                 !
 ! D43   D(10,4,5,11)            0.0            -DE/DX =    0.0                 !
 ! D44   D(1,4,6,2)              0.0            -DE/DX =    0.0                 !
 ! D45   D(1,4,6,12)           151.5573         -DE/DX =    0.0                 !
 ! D46   D(10,4,6,2)          -151.5573         -DE/DX =    0.0                 !
 ! D47   D(10,4,6,12)            0.0            -DE/DX =    0.0                 !
 ! D48   D(3,5,6,2)              0.0            -DE/DX =    0.0                 !
 ! D49   D(3,5,6,12)          -151.5573         -DE/DX =    0.0                 !
 ! D50   D(11,5,6,2)           151.5573         -DE/DX =    0.0                 !
 ! D51   D(11,5,6,12)            0.0            -DE/DX =    0.0                 !
 --------------------------------------------------------------------------------
 GradGradGradGradGradGradGradGradGradGradGradGradGradGradGradGradGradGrad

 Dipole is zero, so no output in dipole orientation.

 ----------------------------------------------------------------------

 Electric dipole moment (input orientation):
 (Debye = 10**-18 statcoulomb cm , SI units = C m)
                  (au)            (Debye)         (10**-30 SI)
   Tot        0.000000D+00      0.000000D+00      0.000000D+00
   x          0.000000D+00      0.000000D+00      0.000000D+00
   y          0.000000D+00      0.000000D+00      0.000000D+00
   z          0.000000D+00      0.000000D+00      0.000000D+00

 Dipole polarizability, Alpha (input orientation).
 (esu units = cm**3 , SI units = C**2 m**2 J**-1)
 Alpha(0;0):
               (au)            (10**-24 esu)      (10**-40 SI)
   iso        0.575235D+02      0.852410D+01      0.948434D+01
   aniso      0.370831D+01      0.549515D+00      0.611418D+00
   xx         0.562872D+02      0.834090D+01      0.928051D+01
   yx         0.000000D+00      0.000000D+00      0.000000D+00
   yy         0.562875D+02      0.834095D+01      0.928056D+01
   zx         0.000000D+00      0.000000D+00      0.000000D+00
   zy         0.000000D+00      0.000000D+00      0.000000D+00
   zz         0.599957D+02      0.889044D+01      0.989195D+01

 ----------------------------------------------------------------------
 1\1\GINC-GAMBA\Freq\RB3LYP\Gen\C6H6\IRIKURA\17-Jun-2022\0\\#N Geom=All
 Check Guess=TCheck SCRF=Check GenChk RB3LYP/ChkBas Freq\\tetracyclic C
 6H6, B3LYP/pcseg-2\\0,1\C,0.,0.8769693456,0.7782632264\C,-0.7594779378
 ,-0.43848503,0.7782632264\C,0.7594779378,-0.43848503,0.7782632264\C,0.
 ,0.8769693456,-0.7782632264\C,0.7594779378,-0.43848503,-0.7782632264\C
 ,-0.7594779378,-0.43848503,-0.7782632264\H,0.,1.6697618526,1.510079020
 1\H,-1.4460563888,-0.8348812834,1.5100790201\H,1.4460563888,-0.8348812
 834,1.5100790201\H,0.,1.6697618526,-1.5100790201\H,1.4460563888,-0.834
 8812834,-1.5100790201\H,-1.4460563888,-0.8348812834,-1.5100790201\\Ver
 sion=ES64L-G16RevB.01\State=1-A1'\HF=-232.1396821\RMSD=2.089e-09\RMSF=
 7.083e-05\ZeroPoint=0.0968296\Thermal=0.1009215\Dipole=0.,0.,0.\Dipole
 Deriv=0.0734891,0.,0.,0.,-0.1589021,0.0114304,0.,0.0883548,0.0496472,-
 0.1007983,-0.1006247,-0.0099047,-0.1006286,0.0153997,-0.0057119,-0.076
 5262,-0.0441825,0.0496418,-0.1007983,0.1006247,0.0099047,0.1006286,0.0
 153997,-0.0057119,0.0765262,-0.0441825,0.0496418,0.0734892,0.,0.,0.,-0
 .1589021,-0.0114304,0.,-0.0883548,0.0496472,-0.1007984,0.1006247,-0.00
 99047,0.1006287,0.0153997,0.0057119,-0.0765262,0.0441825,0.0496418,-0.
 1007984,-0.1006247,0.0099047,-0.1006287,0.0153997,0.0057119,0.0765262,
 0.0441825,0.0496418,0.1297092,0.,0.,0.,-0.0443112,-0.0774353,0.,-0.106
 6427,-0.0496392,-0.0008064,-0.0753516,0.0670623,-0.0753506,0.0862014,0
 .0387158,0.0923573,0.0533224,-0.0496397,-0.0008064,0.0753516,-0.067062
 3,0.0753506,0.0862014,0.0387158,-0.0923573,0.0533224,-0.0496397,0.1297
 092,0.,0.,0.,-0.0443112,0.0774353,0.,0.1066427,-0.0496392,-0.0008064,0
 .0753516,0.0670623,0.0753506,0.0862014,-0.0387158,0.0923574,-0.0533224
 ,-0.0496397,-0.0008064,-0.0753516,-0.0670623,-0.0753506,0.0862014,-0.0
 387158,-0.0923574,-0.0533224,-0.0496397\Polar=56.2872032,0.,56.2875124
 ,0.,0.,59.9956716\Quadrupole=-0.6247158,-0.6247158,1.2494316,0.,0.,0.\
 PG=D03H [3SGV(C2H2)]\NImag=0\\0.20908610,0.,0.60894816,0.,0.19064506,0
 .52872573,-0.06429598,-0.10317710,0.01752942,0.50898265,-0.04913678,-0
 .15223444,0.00482072,0.17314535,0.30905162,0.00458984,-0.01759128,-0.0
 3892648,-0.16510346,-0.09532253,0.52872573,-0.06429598,0.10317710,-0.0
 1752942,-0.19620367,-0.02702016,-0.01293958,0.50898265,0.04913678,-0.1
 5223444,0.00482072,0.02702016,-0.02032675,0.01277056,-0.17314535,0.309
 05162,-0.00458984,-0.01759128,-0.03892648,0.01293958,0.01277056,-0.038
 92648,0.16510346,-0.09532253,0.52872573,-0.02934247,0.,0.,-0.00380298,
 -0.03200474,0.02382805,-0.00380298,0.03200474,-0.02382805,0.20908610,0
 .,-0.04117183,-0.02201437,-0.01289011,-0.02972304,0.01983077,0.0128901
 1,-0.02972304,0.01983077,0.,0.60894816,0.,0.02201437,-0.17212067,0.005
 25992,0.03055108,-0.04443387,-0.00525992,0.03055108,-0.04443387,0.,-0.
 19064506,0.52872573,-0.00380298,0.01289011,0.00525992,-0.04268306,0.00
 955732,0.02908797,-0.03821449,0.00512226,-0.01906500,-0.06429598,0.103
 17710,0.01752942,0.50898265,0.03200474,-0.02972304,-0.03055108,-0.0095
 5732,0.00915704,0.01072031,0.00512226,-0.03229981,0.01100718,0.0491367
 8,-0.15223444,-0.00482072,-0.17314535,0.30905162,0.02382805,-0.0198307
 7,-0.04443387,0.02908797,-0.01072031,-0.04443387,0.01906500,-0.0110071
 8,-0.17212067,0.00458984,0.01759128,-0.03892648,-0.16510346,0.09532253
 ,0.52872573,-0.00380298,-0.01289011,-0.00525992,-0.03821449,-0.0051222
 6,0.01906500,-0.04268306,-0.00955732,-0.02908797,-0.06429598,-0.103177
 10,-0.01752942,-0.19620367,0.02702016,-0.01293958,0.50898265,-0.032004
 74,-0.02972304,-0.03055108,-0.00512226,-0.03229981,0.01100718,0.009557
 32,0.00915704,0.01072031,-0.04913678,-0.15223444,-0.00482072,-0.027020
 16,-0.02032675,-0.01277056,0.17314535,0.30905162,-0.02382805,-0.019830
 77,-0.04443387,-0.01906500,-0.01100718,-0.17212067,-0.02908797,-0.0107
 2031,-0.04443387,-0.00458984,0.01759128,-0.03892648,0.01293958,-0.0127
 7056,-0.03892648,0.16510346,0.09532253,0.52872573,-0.02884936,0.,0.,0.
 00400004,-0.00760708,-0.01660121,0.00400004,0.00760708,0.01660121,-0.0
 0582840,0.,0.,-0.00216065,0.00383035,0.00326317,-0.00216065,-0.0038303
 5,-0.00326317,0.02734400,0.,-0.20769186,-0.14503783,0.00650678,-0.0076
 4366,-0.00697613,-0.00650678,-0.00764366,-0.00697613,0.,0.00817632,0.0
 0169796,-0.00160230,-0.00080266,-0.00051249,0.00160230,-0.00080266,-0.
 00051249,0.,0.21232118,0.,-0.14788022,-0.19216086,-0.00184083,0.004321
 15,0.00291423,0.00184083,0.00432115,0.00291423,0.,-0.01422081,0.001782
 44,0.00102267,-0.00125144,-0.00266721,-0.00102267,-0.00125144,-0.00266
 721,0.,0.15876837,0.18731567,-0.00425629,0.00173999,-0.00225910,-0.162
 98123,-0.07744108,0.12560645,-0.00520917,-0.01182373,0.01434211,-0.000
 17739,0.00274734,-0.00118775,-0.00210693,-0.00157128,0.00207542,0.0046
 7514,0.00606422,-0.00147048,0.00065068,-0.00070854,0.00031014,0.166076
 88,-0.01237387,0.00061268,0.01786513,-0.07744108,-0.07355998,0.0725189
 2,0.00229013,0.00156556,-0.01088900,-0.00268531,-0.00278593,0.00308224
 ,0.00386136,-0.00085638,-0.00256974,0.00606422,-0.00232722,-0.00084898
 ,0.00232186,0.00158213,-0.00061408,0.08009747,0.07358829,-0.00466265,-
 0.00056637,0.00291423,0.12806803,0.07394011,-0.19216086,-0.00282181,-0
 .00375479,0.00291423,0.00057244,0.00151138,-0.00266721,0.00159512,-0.0
 0025994,-0.00266721,0.01231558,0.00711040,0.00178244,0.00068688,0.0000
 3845,0.00085549,-0.13749744,-0.07938418,0.18731567,-0.00425629,-0.0017
 3999,0.00225910,-0.00520917,0.01182373,-0.01434211,-0.16298123,0.07744
 108,-0.12560645,-0.00017739,-0.00274734,0.00118775,0.00467514,-0.00606
 422,0.00147048,-0.00210693,0.00157128,-0.00207542,0.00065068,0.0007085
 4,-0.00031014,0.00204786,-0.00151520,0.00037673,0.16607688,0.01237387,
 0.00061268,0.01786513,-0.00229013,0.00156556,-0.01088900,0.07744108,-0
 .07355998,0.07251892,0.00268531,-0.00278593,0.00308224,-0.00606422,-0.
 00232722,-0.00084898,-0.00386136,-0.00085638,-0.00256974,-0.00232186,0
 .00158213,-0.00061408,0.00151520,0.00018496,0.00057563,-0.08009747,0.0
 7358829,0.00466265,-0.00056637,0.00291423,0.00282181,-0.00375479,0.002
 91423,-0.12806803,0.07394011,-0.19216086,-0.00057244,0.00151138,-0.002
 66721,-0.01231558,0.00711040,0.00178244,-0.00159512,-0.00025994,-0.002
 66721,-0.00068688,0.00003845,0.00085549,-0.00037673,0.00057563,0.00085
 549,0.13749744,-0.07938418,0.18731567,-0.00582840,0.,0.,-0.00216065,-0
 .00383035,0.00326317,-0.00216065,0.00383035,-0.00326317,-0.02884936,0.
 ,0.,0.00400004,0.00760708,-0.01660121,0.00400004,-0.00760708,0.0166012
 1,0.00119809,0.,0.,0.00057776,-0.00101004,0.00110251,0.00057776,0.0010
 1004,-0.00110251,0.02734400,0.,0.00817632,-0.00169796,0.00160230,-0.00
 080266,0.00051249,-0.00160230,-0.00080266,0.00051249,0.,-0.20769186,0.
 14503783,-0.00650678,-0.00764366,0.00697613,0.00650678,-0.00764366,0.0
 0697613,0.,0.00037735,0.00039658,0.00048170,0.00027273,0.00006572,-0.0
 0048170,0.00027273,0.00006572,0.,0.21232118,0.,0.01422081,0.00178244,0
 .00102267,0.00125144,-0.00266721,-0.00102267,0.00125144,-0.00266721,0.
 ,0.14788022,-0.19216086,-0.00184083,-0.00432115,0.00291423,0.00184083,
 -0.00432115,0.00291423,0.,-0.00039658,0.00058998,-0.00049434,0.0009876
 7,0.00013391,0.00049434,0.00098767,0.00013391,0.,-0.15876837,0.1873156
 7,-0.00017739,-0.00274734,-0.00118775,-0.00210693,0.00157128,0.0020754
 2,0.00467514,-0.00606422,-0.00147048,-0.00425629,-0.00173999,-0.002259
 10,-0.16298123,0.07744108,0.12560645,-0.00520917,0.01182373,0.01434211
 ,0.00057776,-0.00048170,-0.00049434,0.00012021,0.00074587,0.00060817,0
 .00058253,0.00035539,0.00034345,0.00065068,0.00070854,0.00031014,0.166
 07688,0.00268531,-0.00278593,-0.00308224,-0.00386136,-0.00085638,0.002
 56974,-0.00606422,-0.00232722,0.00084898,0.01237387,0.00061268,-0.0178
 6513,0.07744108,-0.07355998,-0.07251892,-0.00229013,0.00156556,0.01088
 900,0.00101004,0.00027273,-0.00098767,-0.00074587,0.00073028,0.0009219
 4,0.00035539,0.00099290,-0.00019829,-0.00232186,0.00158213,0.00061408,
 -0.08009747,0.07358829,0.00057244,-0.00151138,-0.00266721,0.00159512,0
 .00025994,-0.00266721,0.01231558,-0.00711040,0.00178244,-0.00466265,0.
 00056637,0.00291423,0.12806803,-0.07394011,-0.19216086,-0.00282181,0.0
 0375479,0.00291423,0.00110251,-0.00006572,0.00013391,0.00060817,-0.000
 92194,0.00013391,-0.00034345,0.00019829,0.00058998,0.00068688,-0.00003
 845,0.00085549,-0.13749744,0.07938418,0.18731567,-0.00017739,0.0027473
 4,0.00118775,0.00467514,0.00606422,0.00147048,-0.00210693,-0.00157128,
 -0.00207542,-0.00425629,0.00173999,0.00225910,-0.00520917,-0.01182373,
 -0.01434211,-0.16298123,-0.07744108,-0.12560645,0.00057776,0.00048170,
 0.00049434,0.00058253,-0.00035539,-0.00034345,0.00012021,-0.00074587,-
 0.00060817,0.00065068,-0.00070854,-0.00031014,0.00204786,0.00151520,0.
 00037673,0.16607688,-0.00268531,-0.00278593,-0.00308224,0.00606422,-0.
 00232722,0.00084898,0.00386136,-0.00085638,0.00256974,-0.01237387,0.00
 061268,-0.01786513,0.00229013,0.00156556,0.01088900,-0.07744108,-0.073
 55998,-0.07251892,-0.00101004,0.00027273,-0.00098767,-0.00035539,0.000
 99290,-0.00019829,0.00074587,0.00073028,0.00092194,0.00232186,0.001582
 13,0.00061408,-0.00151520,0.00018496,-0.00057563,0.08009747,0.07358829
 ,-0.00057244,-0.00151138,-0.00266721,-0.01231558,-0.00711040,0.0017824
 4,-0.00159512,0.00025994,-0.00266721,0.00466265,0.00056637,0.00291423,
 0.00282181,0.00375479,0.00291423,-0.12806803,-0.07394011,-0.19216086,-
 0.00110251,-0.00006572,0.00013391,0.00034345,0.00019829,0.00058998,-0.
 00060817,-0.00092194,0.00013391,-0.00068688,-0.00003845,0.00085549,-0.
 00037673,-0.00057563,0.00085549,0.13749744,0.07938418,0.18731567\\0.,0
 .00017300,-0.00001233,-0.00014982,-0.00008650,-0.00001233,0.00014982,-
 0.00008650,-0.00001233,0.,0.00017300,0.00001233,0.00014982,-0.00008650
 ,0.00001233,-0.00014982,-0.00008650,0.00001233,0.,-0.00000242,-0.00000
 433,0.00000210,0.00000121,-0.00000433,-0.00000210,0.00000121,-0.000004
 33,0.,-0.00000242,0.00000433,-0.00000210,0.00000121,0.00000433,0.00000
 210,0.00000121,0.00000433\\\@


 "I COULD HAVE DONE IT IN A MUCH MORE COMPLICATED WAY"
 SAID THE RED QUEEN, IMMENSELY PROUD.

                                      -- LEWIS CARROLL
 Job cpu time:       0 days  0 hours 14 minutes  1.9 seconds.
 Elapsed time:       0 days  0 hours  1 minutes 10.5 seconds.
 File lengths (MBytes):  RWF=     35 Int=      0 D2E=      0 Chk=      7 Scr=      1
 Normal termination of Gaussian 16 at Fri Jun 17 15:51:51 2022.
