 Entering Gaussian System, Link 0=g16
 AtFile(1): pcseg2.gbs
            -H     0
            S   4   1.00
                  0.754732D+02           0.427821D-02
                  0.113575D+02           0.328672D-01
                  0.260081D+01           0.159578D+00
                  0.735503D+00           0.500000D+00
            S   1   1.00
                  0.231761D+00           1.0000000
            S   1   1.00
                  0.741675D-01           1.0000000
            P   1   1.00
                  0.160000D+01           1.0000000
            P   1   1.00
                  0.450000D+00           1.0000000
            D   1   1.00
                  0.125000D+01           1.0000000
            ****
            -C     0
            S   7   1.00
                  0.731999D+04           0.695369D-03
                  0.109818D+04           0.537138D-02
                  0.250014D+03           0.274734D-01
                  0.707586D+02           0.105078D+00
                  0.228595D+02           0.291262D+00
                  0.803936D+01           0.500000D+00
                  0.289309D+01           0.362224D+00
            S   2   1.00
                  0.521640D+01          -0.957844D-01
                  0.556124D+00           0.500000D+00
            S   1   1.00
                  0.228813D+00           1.0000000
            S   1   1.00
                  0.936338D-01           1.0000000
            P   4   1.00
                  0.339855D+02           0.818395D-02
                  0.772957D+01           0.586921D-01
                  0.224954D+01           0.222514D+00
                  0.767681D+00           0.500000D+00
            P   1   1.00
                  0.263283D+00           1.0000000
            P   1   1.00
                  0.848744D-01           1.0000000
            D   1   1.00
                  0.140000D+01           1.0000000
            D   1   1.00
                  0.450000D+00           1.0000000
            F   1   1.00
                  0.950000D+00           1.0000000
            ****
            -O     0
            S   7   1.00
                  0.135887D+05           0.665492D-03
                  0.203847D+04           0.514222D-02
                  0.464041D+03           0.263472D-01
                  0.131339D+03           0.101500D+00
                  0.425340D+02           0.285877D+00
                  0.150429D+02           0.500000D+00
                  0.546616D+01           0.368211D+00
            S   2   1.00
                  0.100915D+02          -0.100084D+00
                  0.110429D+01           0.500000D+00
            S   1   1.00
                  0.448082D+00           1.0000000
            S   1   1.00
                  0.175325D+00           1.0000000
            P   4   1.00
                  0.608220D+02           0.908253D-02
                  0.140332D+02           0.645878D-01
                  0.418244D+01           0.241502D+00
                  0.142490D+01           0.500000D+00
            P   1   1.00
                  0.478741D+00           1.0000000
            P   1   1.00
                  0.146257D+00           1.0000000
            D   1   1.00
                  0.220000D+01           1.0000000
            D   1   1.00
                  0.650000D+00           1.0000000
            F   1   1.00
                  0.110000D+01           1.0000000
            ****
            -N     0
            S   7   1.00
                  0.101643D+05           0.682757D-03
                  0.152481D+04           0.527488D-02
                  0.347119D+03           0.270037D-01
                  0.982389D+02           0.103673D+00
                  0.317799D+02           0.289575D+00
                  0.112240D+02           0.500000D+00
                  0.406611D+01           0.364621D+00
            S   2   1.00
                  0.747898D+01          -0.975681D-01
                  0.805040D+00           0.500000D+00
            S   1   1.00
                  0.324626D+00           1.0000000
            S   1   1.00
                  0.128132D+00           1.0000000
            P   4   1.00
                  0.482704D+02           0.829547D-02
                  0.110815D+02           0.596223D-01
                  0.326643D+01           0.227889D+00
                  0.111680D+01           0.500000D+00
            P   1   1.00
                  0.382049D+00           1.0000000
            P   1   1.00
                  0.121222D+00           1.0000000
            D   1   1.00
                  0.180000D+01           1.0000000
            D   1   1.00
                  0.550000D+00           1.0000000
            F   1   1.00
                  0.102000D+01           1.0000000
            ****
            -F     0
            S   7   1.00
                  0.174507D+05           0.655972D-03
                  0.261768D+04           0.506944D-02
                  0.595857D+03           0.259899D-01
                  0.168651D+03           0.100353D+00
                  0.546654D+02           0.284095D+00
                  0.193717D+02           0.500000D+00
                  0.706202D+01           0.370721D+00
            S   2   1.00
                  0.131197D+02          -0.101997D+00
                  0.145046D+01           0.500000D+00
            S   1   1.00
                  0.588255D+00           1.0000000
            S   1   1.00
                  0.227960D+00           1.0000000
            P   4   1.00
                  0.779407D+02           0.931135D-02
                  0.180425D+02           0.663964D-01
                  0.542342D+01           0.246386D+00
                  0.184876D+01           0.500000D+00
            P   1   1.00
                  0.617455D+00           1.0000000
            P   1   1.00
                  0.185496D+00           1.0000000
            D   1   1.00
                  0.280000D+01           1.0000000
            D   1   1.00
                  0.800000D+00           1.0000000
            F   1   1.00
                  0.120000D+01           1.0000000
            ****
            -Cl     0
            S   8   1.00
                  0.154272D+06           0.222473D-03
                  0.231232D+05           0.172590D-02
                  0.526257D+04           0.899286D-02
                  0.148995D+04           0.367724D-01
                  0.485417D+03           0.121446D+00
                  0.174634D+03           0.304148D+00
                  0.672393D+02           0.500000D+00
                  0.265780D+02           0.360252D+00
            S   3   1.00
                  0.131826D+03          -0.531330D-01
                  0.400703D+02          -0.233346D+00
                  0.789448D+01           0.500000D+00
            S   2   1.00
                  0.427711D+01           0.500000D+00
                  0.196233D+01           0.370517D+00
            S   1   1.00
                  0.520793D+00           1.0000000
            S   1   1.00
                  0.181633D+00           1.0000000
            P   7   1.00
                  0.124440D+04           0.988206D-03
                  0.295109D+03           0.829674D-02
                  0.947224D+02           0.430906D-01
                  0.352588D+02           0.148443D+00
                  0.144211D+02           0.344744D+00
                  0.610371D+01           0.500000D+00
                  0.258886D+01           0.348278D+00
            P   2   1.00
                  0.109447D+02          -0.196768D-01
                  0.104413D+01           0.500000D+00
            P   1   1.00
                  0.376184D+00           1.0000000
            P   1   1.00
                  0.120613D+00           1.0000000
            D   1   1.00
                  0.231000D+01           1.0000000
            D   1   1.00
                  0.520000D+00           1.0000000
            F   1   1.00
                  0.720000D+00           1.0000000
            ****
            -S     0
            S   8   1.00
                  0.134700D+06           0.226231D-03
                  0.201904D+05           0.175488D-02
                  0.459528D+04           0.914190D-02
                  0.130109D+04           0.373551D-01
                  0.423902D+03           0.123121D+00
                  0.152485D+03           0.306801D+00
                  0.586925D+02           0.500000D+00
                  0.231461D+02           0.354358D+00
            S   3   1.00
                  0.116327D+03          -0.491772D-01
                  0.352841D+02          -0.215962D+00
                  0.677831D+01           0.500000D+00
            S   2   1.00
                  0.360404D+01           0.500000D+00
                  0.164871D+01           0.366278D+00
            S   1   1.00
                  0.421821D+00           1.0000000
            S   1   1.00
                  0.147554D+00           1.0000000
            P   7   1.00
                  0.104863D+04           0.105273D-02
                  0.248717D+03           0.879338D-02
                  0.797887D+02           0.453358D-01
                  0.296023D+02           0.154476D+00
                  0.120627D+02           0.352366D+00
                  0.507628D+01           0.500000D+00
                  0.213375D+01           0.346429D+00
            P   2   1.00
                  0.928958D+01          -0.185932D-01
                  0.837819D+00           0.500000D+00
            P   1   1.00
                  0.301495D+00           1.0000000
            P   1   1.00
                  0.974740D-01           1.0000000
            D   1   1.00
                  0.210000D+01           1.0000000
            D   1   1.00
                  0.480000D+00           1.0000000
            F   1   1.00
                  0.660000D+00           1.0000000
            ****
            -Br     0
            S    10   1.00
                  0.233625D+07           0.532336D-04
                  0.349961D+06           0.413715D-03
                  0.796444D+05           0.217123D-02
                  0.225555D+05           0.910109D-02
                  0.735546D+04           0.323789D-01
                  0.265352D+04           0.988755D-01
                  0.103517D+04           0.248138D+00
                  0.422205D+03           0.474328D+00
                  0.180035D+03           0.500000D+00
                  0.793308D+02           0.187769D+00
            S    4   1.00
                  0.620834D+03          -0.226511D-01
                  0.190829D+03          -0.109497D+00
                  0.312505D+02           0.500000D+00
                  0.135270D+02           0.492812D+00
            S    2   1.00
                  0.216097D+02          -0.165418D+00
                  0.372566D+01           0.500000D+00
            S    1   1.00
                  0.169770D+01           1.0000000
            S    1   1.00
                  0.489332D+00           1.0000000
            S    1   1.00
                  0.175712D+00           1.0000000
            P    8   1.00
                  0.960829D+04           0.478974D-03
                  0.227618D+04           0.417853D-02
                  0.736723D+03           0.229315D-01
                  0.281579D+03           0.892653D-01
                  0.118395D+03           0.255288D+00
                  0.527481D+02           0.479074D+00
                  0.245098D+02           0.500000D+00
                  0.112009D+02           0.200944D+00
            P    4   1.00
                  0.587849D+02          -0.189674D-01
                  0.918962D+01           0.264104D+00
                  0.413895D+01           0.500000D+00
                  0.184225D+01           0.319316D+00
            P    1   1.00
                  0.713862D+00           1.0000000
            P    1   1.00
                  0.274232D+00           1.0000000
            P    1   1.00
                  0.944411D-01           1.0000000
            D    7   1.00
                  0.398470D+03           0.204066D-02
                  0.118967D+03           0.175171D-01
                  0.450197D+02           0.829708D-01
                  0.190320D+02           0.236284D+00
                  0.855686D+01           0.428468D+00
                  0.382950D+01           0.500000D+00
                  0.166291D+01           0.349360D+00
            D    1   1.00
                  0.672953D+00           1.0000000
            D    1   1.00
                  0.252000D+00           1.0000000
            F    1   1.00
                  0.530000D+00           1.0000000
            ****
            -Si     0
            S    8   1.00
                  0.996133D+05           0.235546D-03
                  0.149311D+05           0.182707D-02
                  0.339820D+04           0.951425D-02
                  0.962140D+03           0.388172D-01
                  0.313430D+03           0.127328D+00
                  0.112683D+03           0.313522D+00
                  0.433372D+02           0.500000D+00
                  0.170029D+02           0.340347D+00
            S    3   1.00
                  0.884208D+02          -0.404451D-01
                  0.266756D+02          -0.178059D+00
                  0.479640D+01           0.500000D+00
            S    2   1.00
                  0.239385D+01           0.500000D+00
                  0.108333D+01           0.338016D+00
            S    1   1.00
                  0.252420D+00           1.0000000
            S    1   1.00
                  0.891210D-01           1.0000000
            P    7   1.00
                  0.709901D+03           0.123028D-02
                  0.168426D+03           0.101366D-01
                  0.539946D+02           0.511840D-01
                  0.198646D+02           0.169967D+00
                  0.801369D+01           0.370717D+00
                  0.331870D+01           0.500000D+00
                  0.136112D+01           0.344128D+00
            P    2   1.00
                  0.622158D+01          -0.166609D-01
                  0.503049D+00           0.500000D+00
            P    1   1.00
                  0.179848D+00           1.0000000
            P    1   1.00
                  0.591912D-01           1.0000000
            D    1   1.00
                  0.168000D+01           1.0000000
            D    1   1.00
                  0.380000D+00           1.0000000
            F    1   1.00
                  0.540000D+00           1.0000000
            ****
            -P     0
            S    8   1.00
                  0.116416D+06           0.230715D-03
                  0.174500D+05           0.178960D-02
                  0.397149D+04           0.932116D-02
                  0.112447D+04           0.380591D-01
                  0.366347D+03           0.125148D+00
                  0.131757D+03           0.310022D+00
                  0.506988D+02           0.500000D+00
                  0.199436D+02           0.347528D+00
            S    3   1.00
                  0.101878D+03          -0.446755D-01
                  0.308249D+02          -0.196376D+00
                  0.573688D+01           0.500000D+00
            S    2   1.00
                  0.296868D+01           0.500000D+00
                  0.135315D+01           0.355098D+00
            S    1   1.00
                  0.332196D+00           1.0000000
            S    1   1.00
                  0.116229D+00           1.0000000
            P    7   1.00
                  0.873928D+03           0.112375D-02
                  0.207298D+03           0.933330D-02
                  0.664628D+02           0.477213D-01
                  0.245665D+02           0.160733D+00
                  0.996820D+01           0.359760D+00
                  0.416536D+01           0.500000D+00
                  0.173022D+01           0.346593D+00
            P    2   1.00
                  0.772530D+01          -0.175718D-01
                  0.657252D+00           0.500000D+00
            P    1   1.00
                  0.239903D+00           1.0000000
            P    1   1.00
                  0.800988D-01           1.0000000
            D    1   1.00
                  0.189000D+01           1.0000000
            D    1   1.00
                  0.430000D+00           1.0000000
            F    1   1.00
                  0.600000D+00           1.0000000
            ****
            
 Initial command:
 /usr/local/apps/g16_b01_avx/g16/l1.exe "/wrk/irikura/Gau-13249.inp" -scrdir="/wrk/irikura/"
 Entering Link 1 = /usr/local/apps/g16_b01_avx/g16/l1.exe PID=     13251.
  
 Copyright (c) 1988-2017, Gaussian, Inc.  All Rights Reserved.
  
 This is part of the Gaussian(R) 16 program.  It is based on
 the Gaussian(R) 09 system (copyright 2009, Gaussian, Inc.),
 the Gaussian(R) 03 system (copyright 2003, Gaussian, Inc.),
 the Gaussian(R) 98 system (copyright 1998, Gaussian, Inc.),
 the Gaussian(R) 94 system (copyright 1995, Gaussian, Inc.),
 the Gaussian 92(TM) system (copyright 1992, Gaussian, Inc.),
 the Gaussian 90(TM) system (copyright 1990, Gaussian, Inc.),
 the Gaussian 88(TM) system (copyright 1988, Gaussian, Inc.),
 the Gaussian 86(TM) system (copyright 1986, Carnegie Mellon
 University), and the Gaussian 82(TM) system (copyright 1983,
 Carnegie Mellon University). Gaussian is a federally registered
 trademark of Gaussian, Inc.
  
 This software contains proprietary and confidential information,
 including trade secrets, belonging to Gaussian, Inc.
  
 This software is provided under written license and may be
 used, copied, transmitted, or stored only in accord with that
 written license.
  
 The following legend is applicable only to US Government
 contracts under FAR:
  
                    RESTRICTED RIGHTS LEGEND
  
 Use, reproduction and disclosure by the US Government is
 subject to restrictions as set forth in subparagraphs (a)
 and (c) of the Commercial Computer Software - Restricted
 Rights clause in FAR 52.227-19.
  
 Gaussian, Inc.
 340 Quinnipiac St., Bldg. 40, Wallingford CT 06492
  
  
 ---------------------------------------------------------------
 Warning -- This program may not be used in any manner that
 competes with the business of Gaussian, Inc. or will provide
 assistance to any competitor of Gaussian, Inc.  The licensee
 of this program is prohibited from giving any competitor of
 Gaussian, Inc. access to this program.  By using this program,
 the user acknowledges that Gaussian, Inc. is engaged in the
 business of creating and licensing software in the field of
 computational chemistry and represents and warrants to the
 licensee that it is not a competitor of Gaussian, Inc. and that
 it will not use this program in any manner prohibited above.
 ---------------------------------------------------------------
  

 Cite this work as:
 Gaussian 16, Revision B.01,
 M. J. Frisch, G. W. Trucks, H. B. Schlegel, G. E. Scuseria, 
 M. A. Robb, J. R. Cheeseman, G. Scalmani, V. Barone, 
 G. A. Petersson, H. Nakatsuji, X. Li, M. Caricato, A. V. Marenich, 
 J. Bloino, B. G. Janesko, R. Gomperts, B. Mennucci, H. P. Hratchian, 
 J. V. Ortiz, A. F. Izmaylov, J. L. Sonnenberg, D. Williams-Young, 
 F. Ding, F. Lipparini, F. Egidi, J. Goings, B. Peng, A. Petrone, 
 T. Henderson, D. Ranasinghe, V. G. Zakrzewski, J. Gao, N. Rega, 
 G. Zheng, W. Liang, M. Hada, M. Ehara, K. Toyota, R. Fukuda, 
 J. Hasegawa, M. Ishida, T. Nakajima, Y. Honda, O. Kitao, H. Nakai, 
 T. Vreven, K. Throssell, J. A. Montgomery, Jr., J. E. Peralta, 
 F. Ogliaro, M. J. Bearpark, J. J. Heyd, E. N. Brothers, K. N. Kudin, 
 V. N. Staroverov, T. A. Keith, R. Kobayashi, J. Normand, 
 K. Raghavachari, A. P. Rendell, J. C. Burant, S. S. Iyengar, 
 J. Tomasi, M. Cossi, J. M. Millam, M. Klene, C. Adamo, R. Cammi, 
 J. W. Ochterski, R. L. Martin, K. Morokuma, O. Farkas, 
 J. B. Foresman, and D. J. Fox, Gaussian, Inc., Wallingford CT, 2016.
 
 ******************************************
 Gaussian 16:  ES64L-G16RevB.01 20-Dec-2017
                16-Jun-2022 
 ******************************************
 %mem=1000mw
 %nprocs=12
 Will use up to   12 processors via shared memory.
 --------------------
 # b3lyp/gen opt freq
 --------------------
 1/18=20,19=15,26=3,38=1/1,3;
 2/9=110,12=2,17=6,18=5,40=1/2;
 3/5=7,11=2,25=1,30=1,71=1,74=-5/1,2,3;
 4//1;
 5/5=2,38=5/2;
 6/7=2,8=2,9=2,10=2,28=1/1;
 7//1,2,3,16;
 1/18=20,19=15,26=3/3(2);
 2/9=110/2;
 99//99;
 2/9=110/2;
 3/5=7,6=1,11=2,25=1,30=1,71=1,74=-5,82=7/1,2,3;
 4/5=5,16=3,69=1/1;
 5/5=2,38=5/2;
 7//1,2,3,16;
 1/18=20,19=15,26=3/3(-5);
 2/9=110/2;
 6/7=2,8=2,9=2,10=2,19=2,28=1/1;
 99/9=1/99;
 ----------------------------
 n-propylamine, B3LYP/pcseg-2
 ----------------------------
 Symbolic Z-matrix:
 Charge =  0 Multiplicity = 1
 C                     1.42998   1.29844   0. 
 C                     0.        0.75021   0. 
 C                    -0.05419  -0.78471   0. 
 N                    -1.38992  -1.38592   0. 
 H                     1.44136   2.39266   0. 
 H                     1.98342   0.96037   0.8833 
 H                     1.98342   0.96037  -0.8833 
 H                    -0.543     1.1257    0.8783 
 H                    -0.543     1.1257   -0.8783 
 H                     0.48634  -1.1658   -0.87647 
 H                     0.48634  -1.1658    0.87647 
 H                    -1.91009  -1.05774  -0.80975 
 H                    -1.91009  -1.05774   0.80975 
 

 GradGradGradGradGradGradGradGradGradGradGradGradGradGradGradGradGradGrad
 Berny optimization.
 Initialization pass.
                           ----------------------------
                           !    Initial Parameters    !
                           ! (Angstroms and Degrees)  !
 --------------------------                            --------------------------
 ! Name  Definition              Value          Derivative Info.                !
 --------------------------------------------------------------------------------
 ! R1    R(1,2)                  1.5315         estimate D2E/DX2                !
 ! R2    R(1,5)                  1.0943         estimate D2E/DX2                !
 ! R3    R(1,6)                  1.0958         estimate D2E/DX2                !
 ! R4    R(1,7)                  1.0958         estimate D2E/DX2                !
 ! R5    R(2,3)                  1.5359         estimate D2E/DX2                !
 ! R6    R(2,8)                  1.0988         estimate D2E/DX2                !
 ! R7    R(2,9)                  1.0988         estimate D2E/DX2                !
 ! R8    R(3,4)                  1.4648         estimate D2E/DX2                !
 ! R9    R(3,10)                 1.098          estimate D2E/DX2                !
 ! R10   R(3,11)                 1.098          estimate D2E/DX2                !
 ! R11   R(4,12)                 1.0168         estimate D2E/DX2                !
 ! R12   R(4,13)                 1.0168         estimate D2E/DX2                !
 ! A1    A(2,1,5)              111.572          estimate D2E/DX2                !
 ! A2    A(2,1,6)              111.1703         estimate D2E/DX2                !
 ! A3    A(2,1,7)              111.1703         estimate D2E/DX2                !
 ! A4    A(5,1,6)              107.6527         estimate D2E/DX2                !
 ! A5    A(5,1,7)              107.6527         estimate D2E/DX2                !
 ! A6    A(6,1,7)              107.4264         estimate D2E/DX2                !
 ! A7    A(1,2,3)              112.9979         estimate D2E/DX2                !
 ! A8    A(1,2,8)              109.8229         estimate D2E/DX2                !
 ! A9    A(1,2,9)              109.8229         estimate D2E/DX2                !
 ! A10   A(3,2,8)              108.9106         estimate D2E/DX2                !
 ! A11   A(3,2,9)              108.9106         estimate D2E/DX2                !
 ! A12   A(8,2,9)              106.1385         estimate D2E/DX2                !
 ! A13   A(2,3,4)              116.2545         estimate D2E/DX2                !
 ! A14   A(2,3,10)             109.2379         estimate D2E/DX2                !
 ! A15   A(2,3,11)             109.2379         estimate D2E/DX2                !
 ! A16   A(4,3,10)             107.8458         estimate D2E/DX2                !
 ! A17   A(4,3,11)             107.8458         estimate D2E/DX2                !
 ! A18   A(10,3,11)            105.9252         estimate D2E/DX2                !
 ! A19   A(3,4,12)             109.5124         estimate D2E/DX2                !
 ! A20   A(3,4,13)             109.5124         estimate D2E/DX2                !
 ! A21   A(12,4,13)            105.563          estimate D2E/DX2                !
 ! D1    D(5,1,2,3)            180.0            estimate D2E/DX2                !
 ! D2    D(5,1,2,8)            -58.1803         estimate D2E/DX2                !
 ! D3    D(5,1,2,9)             58.1803         estimate D2E/DX2                !
 ! D4    D(6,1,2,3)            -59.8145         estimate D2E/DX2                !
 ! D5    D(6,1,2,8)             62.0052         estimate D2E/DX2                !
 ! D6    D(6,1,2,9)            178.3658         estimate D2E/DX2                !
 ! D7    D(7,1,2,3)             59.8145         estimate D2E/DX2                !
 ! D8    D(7,1,2,8)           -178.3658         estimate D2E/DX2                !
 ! D9    D(7,1,2,9)            -62.0052         estimate D2E/DX2                !
 ! D10   D(1,2,3,4)            180.0            estimate D2E/DX2                !
 ! D11   D(1,2,3,10)           -57.7206         estimate D2E/DX2                !
 ! D12   D(1,2,3,11)            57.7206         estimate D2E/DX2                !
 ! D13   D(8,2,3,4)             57.6686         estimate D2E/DX2                !
 ! D14   D(8,2,3,10)           179.948          estimate D2E/DX2                !
 ! D15   D(8,2,3,11)           -64.6108         estimate D2E/DX2                !
 ! D16   D(9,2,3,4)            -57.6686         estimate D2E/DX2                !
 ! D17   D(9,2,3,10)            64.6108         estimate D2E/DX2                !
 ! D18   D(9,2,3,11)          -179.948          estimate D2E/DX2                !
 ! D19   D(2,3,4,12)            57.6564         estimate D2E/DX2                !
 ! D20   D(2,3,4,13)           -57.6564         estimate D2E/DX2                !
 ! D21   D(10,3,4,12)          -65.3519         estimate D2E/DX2                !
 ! D22   D(10,3,4,13)          179.3352         estimate D2E/DX2                !
 ! D23   D(11,3,4,12)         -179.3352         estimate D2E/DX2                !
 ! D24   D(11,3,4,13)           65.3519         estimate D2E/DX2                !
 --------------------------------------------------------------------------------
 Trust Radius=3.00D-01 FncErr=1.00D-07 GrdErr=1.00D-06 EigMax=2.50D+02 EigMin=1.00D-04
 Number of steps in this run=     67 maximum allowed number of steps=    100.
 GradGradGradGradGradGradGradGradGradGradGradGradGradGradGradGradGradGrad

                          Input orientation:                          
 ---------------------------------------------------------------------
 Center     Atomic      Atomic             Coordinates (Angstroms)
 Number     Number       Type             X           Y           Z
 ---------------------------------------------------------------------
      1          6           0        1.429979    1.298442    0.000000
      2          6           0        0.000000    0.750213    0.000000
      3          6           0       -0.054190   -0.784706    0.000000
      4          7           0       -1.389920   -1.385918    0.000000
      5          1           0        1.441362    2.392662    0.000000
      6          1           0        1.983421    0.960366    0.883295
      7          1           0        1.983421    0.960366   -0.883295
      8          1           0       -0.543003    1.125702    0.878301
      9          1           0       -0.543003    1.125702   -0.878301
     10          1           0        0.486340   -1.165796   -0.876469
     11          1           0        0.486340   -1.165796    0.876469
     12          1           0       -1.910088   -1.057737   -0.809746
     13          1           0       -1.910088   -1.057737    0.809746
 ---------------------------------------------------------------------
                    Distance matrix (angstroms):
                    1          2          3          4          5
     1  C    0.000000
     2  C    1.531468   0.000000
     3  C    2.557785   1.535875   0.000000
     4  N    3.893279   2.548516   1.464797   0.000000
     5  H    1.094279   2.185215   3.511744   4.721634   0.000000
     6  H    1.095812   2.181360   2.824419   4.202938   1.767911
     7  H    1.095812   2.181360   2.824419   4.202938   1.767911
     8  H    2.166543   1.098752   2.158706   2.792296   2.512828
     9  H    2.166543   1.098752   2.158706   2.792296   2.512828
    10  H    2.780489   2.162363   1.097998   2.082547   3.787201
    11  H    2.780489   2.162363   1.097998   2.082547   3.787201
    12  H    4.166931   2.751874   2.043182   1.016841   4.877823
    13  H    4.166931   2.751874   2.043182   1.016841   4.877823
                    6          7          8          9         10
     6  H    0.000000
     7  H    1.766590   0.000000
     8  H    2.531833   3.084376   0.000000
     9  H    3.084376   2.531833   1.756602   0.000000
    10  H    3.139838   2.600358   3.064266   2.512074   0.000000
    11  H    2.600358   3.139838   2.512074   3.064266   1.752938
    12  H    4.700908   4.386064   3.079907   2.577019   2.399791
    13  H    4.386064   4.700908   2.577019   3.079907   2.932212
                   11         12         13
    11  H    0.000000
    12  H    2.932212   0.000000
    13  H    2.399791   1.619492   0.000000
 Stoichiometry    C3H9N
 Framework group  CS[SG(C3HN),X(H8)]
 Deg. of freedom    19
 Full point group                 CS      NOp   2
 Largest Abelian subgroup         CS      NOp   2
 Largest concise Abelian subgroup CS      NOp   2
                         Standard orientation:                         
 ---------------------------------------------------------------------
 Center     Atomic      Atomic             Coordinates (Angstroms)
 Number     Number       Type             X           Y           Z
 ---------------------------------------------------------------------
      1          6           0        1.429979    1.298442    0.000000
      2          6           0        0.000000    0.750213    0.000000
      3          6           0       -0.054190   -0.784706    0.000000
      4          7           0       -1.389920   -1.385918    0.000000
      5          1           0        1.441362    2.392662    0.000000
      6          1           0        1.983421    0.960366    0.883295
      7          1           0        1.983421    0.960366   -0.883295
      8          1           0       -0.543003    1.125702    0.878301
      9          1           0       -0.543003    1.125702   -0.878301
     10          1           0        0.486340   -1.165796   -0.876469
     11          1           0        0.486340   -1.165796    0.876469
     12          1           0       -1.910088   -1.057737   -0.809746
     13          1           0       -1.910088   -1.057737    0.809746
 ---------------------------------------------------------------------
 Rotational constants (GHZ):          24.7833991           3.6617888           3.4517852
 General basis read from cards:  (5D, 7F)
 There are   167 symmetry adapted cartesian basis functions of A'  symmetry.
 There are   108 symmetry adapted cartesian basis functions of A"  symmetry.
 There are   146 symmetry adapted basis functions of A'  symmetry.
 There are   100 symmetry adapted basis functions of A"  symmetry.
   246 basis functions,   366 primitive gaussians,   275 cartesian basis functions
    17 alpha electrons       17 beta electrons
       nuclear repulsion energy       130.7857003804 Hartrees.
 NAtoms=   13 NActive=   13 NUniq=    9 SFac= 2.09D+00 NAtFMM=   60 NAOKFM=F Big=F
 Integral buffers will be    131072 words long.
 Raffenetti 2 integral format.
 Two-electron integral symmetry is turned on.
 One-electron integrals computed using PRISM.
 NBasis=   246 RedAO= T EigKep=  3.21D-04  NBF=   146   100
 NBsUse=   246 1.00D-06 EigRej= -1.00D+00 NBFU=   146   100
 ExpMin= 7.42D-02 ExpMax= 1.02D+04 ExpMxC= 3.47D+02 IAcc=3 IRadAn=         5 AccDes= 0.00D+00
 Harris functional with IExCor=  402 and IRadAn=       5 diagonalized for initial guess.
 HarFok:  IExCor=  402 AccDes= 0.00D+00 IRadAn=         5 IDoV= 1 UseB2=F ITyADJ=14
 ICtDFT=  3500011 ScaDFX=  1.000000  1.000000  1.000000  1.000000
 FoFCou: FMM=F IPFlag=           0 FMFlag=      100000 FMFlg1=           0
         NFxFlg=           0 DoJE=T BraDBF=F KetDBF=T FulRan=T
         wScrn=  0.000000 ICntrl=       500 IOpCl=  0 I1Cent=   200000004 NGrid=           0
         NMat0=    1 NMatS0=      1 NMatT0=    0 NMatD0=    1 NMtDS0=    0 NMtDT0=    0
 Petite list used in FoFCou.
 Initial guess orbital symmetries:
       Occupied  (A') (A') (A') (A') (A') (A') (A') (A') (A") (A')
                 (A") (A') (A') (A") (A') (A") (A')
       Virtual   (A') (A') (A") (A') (A') (A') (A") (A") (A') (A")
                 (A') (A') (A') (A") (A') (A') (A") (A") (A') (A')
                 (A") (A') (A') (A") (A') (A') (A") (A') (A') (A")
                 (A') (A") (A') (A') (A') (A') (A') (A') (A") (A")
                 (A") (A') (A') (A') (A") (A') (A") (A') (A") (A")
                 (A') (A") (A") (A') (A") (A') (A") (A') (A") (A')
                 (A') (A") (A") (A') (A') (A') (A') (A") (A') (A")
                 (A') (A") (A') (A") (A') (A') (A') (A") (A") (A')
                 (A') (A') (A") (A') (A') (A") (A') (A') (A") (A")
                 (A') (A') (A') (A') (A") (A') (A') (A') (A') (A')
                 (A") (A") (A') (A") (A') (A') (A") (A') (A') (A")
                 (A') (A") (A") (A') (A") (A') (A") (A') (A') (A")
                 (A') (A') (A") (A") (A') (A") (A') (A") (A") (A")
                 (A') (A") (A') (A") (A") (A") (A') (A') (A") (A')
                 (A") (A") (A') (A') (A") (A') (A") (A') (A') (A")
                 (A') (A') (A") (A') (A") (A') (A") (A') (A') (A')
                 (A") (A') (A') (A") (A') (A") (A') (A") (A") (A')
                 (A") (A') (A') (A') (A") (A') (A") (A') (A") (A')
                 (A') (A") (A') (A') (A") (A') (A") (A') (A") (A')
                 (A') (A') (A") (A') (A") (A') (A") (A') (A') (A")
                 (A") (A') (A") (A') (A') (A") (A') (A") (A") (A')
                 (A') (A') (A") (A") (A') (A') (A') (A") (A') (A")
                 (A') (A") (A') (A") (A') (A") (A") (A') (A')
 The electronic state of the initial guess is 1-A'.
 Keep R1 ints in memory in symmetry-blocked form, NReq=692698457.
 Requested convergence on RMS density matrix=1.00D-08 within 128 cycles.
 Requested convergence on MAX density matrix=1.00D-06.
 Requested convergence on             energy=1.00D-06.
 No special actions if energy rises.
 Integral accuracy reduced to 1.0D-05 until final iterations.
 Initial convergence to 1.0D-05 achieved.  Increase integral accuracy.
 SCF Done:  E(RB3LYP) =  -174.566024105     A.U. after   12 cycles
            NFock= 12  Conv=0.26D-08     -V/T= 2.0049

 **********************************************************************

            Population analysis using the SCF Density.

 **********************************************************************

 Orbital symmetries:
       Occupied  (A') (A') (A') (A') (A') (A') (A') (A') (A") (A')
                 (A") (A') (A') (A") (A') (A") (A')
       Virtual   (A') (A') (A") (A') (A') (A") (A') (A") (A") (A')
                 (A') (A') (A') (A") (A') (A") (A') (A") (A') (A")
                 (A') (A') (A") (A') (A') (A') (A") (A") (A') (A')
                 (A') (A") (A') (A') (A') (A') (A') (A') (A") (A")
                 (A") (A') (A') (A') (A") (A") (A') (A") (A") (A')
                 (A') (A") (A") (A') (A") (A') (A") (A') (A") (A")
                 (A') (A') (A") (A') (A') (A') (A') (A') (A") (A")
                 (A') (A") (A') (A") (A') (A') (A') (A") (A") (A')
                 (A') (A") (A') (A') (A") (A') (A') (A') (A") (A")
                 (A') (A') (A') (A') (A") (A') (A') (A') (A') (A')
                 (A") (A") (A') (A") (A') (A') (A") (A') (A') (A")
                 (A') (A") (A") (A') (A') (A") (A") (A') (A') (A")
                 (A') (A') (A") (A") (A') (A") (A") (A') (A") (A")
                 (A') (A") (A') (A") (A") (A") (A') (A') (A") (A")
                 (A') (A") (A') (A") (A') (A') (A") (A') (A') (A")
                 (A') (A") (A') (A') (A") (A') (A") (A') (A') (A')
                 (A') (A") (A') (A") (A') (A") (A') (A") (A") (A')
                 (A") (A') (A') (A") (A') (A") (A') (A') (A") (A')
                 (A') (A") (A') (A") (A') (A') (A") (A') (A') (A")
                 (A') (A') (A") (A") (A') (A') (A") (A') (A') (A")
                 (A") (A") (A') (A') (A') (A") (A') (A") (A") (A')
                 (A') (A') (A") (A') (A") (A') (A') (A") (A') (A")
                 (A') (A") (A') (A") (A') (A") (A") (A') (A')
 The electronic state is 1-A'.
 Alpha  occ. eigenvalues --  -14.29416 -10.19153 -10.16853 -10.16366  -0.88230
 Alpha  occ. eigenvalues --   -0.76890  -0.66146  -0.59251  -0.50170  -0.45011
 Alpha  occ. eigenvalues --   -0.44302  -0.40862  -0.37684  -0.37096  -0.34951
 Alpha  occ. eigenvalues --   -0.33315  -0.24396
 Alpha virt. eigenvalues --    0.01063   0.02415   0.04083   0.04670   0.07440
 Alpha virt. eigenvalues --    0.08850   0.09243   0.09640   0.12275   0.12955
 Alpha virt. eigenvalues --    0.15441   0.17818   0.18673   0.19677   0.22086
 Alpha virt. eigenvalues --    0.24056   0.25807   0.26208   0.28830   0.30674
 Alpha virt. eigenvalues --    0.31075   0.33158   0.33807   0.33979   0.36208
 Alpha virt. eigenvalues --    0.36890   0.36926   0.37208   0.39326   0.40019
 Alpha virt. eigenvalues --    0.41930   0.43526   0.44979   0.50355   0.52786
 Alpha virt. eigenvalues --    0.54564   0.64296   0.69188   0.70705   0.76300
 Alpha virt. eigenvalues --    0.77790   0.79882   0.85469   0.86902   0.87078
 Alpha virt. eigenvalues --    0.94610   0.95285   0.96103   0.98046   0.98582
 Alpha virt. eigenvalues --    0.99396   1.00203   1.03938   1.06435   1.07639
 Alpha virt. eigenvalues --    1.08967   1.11326   1.12632   1.13020   1.19069
 Alpha virt. eigenvalues --    1.19273   1.20094   1.22927   1.26048   1.26880
 Alpha virt. eigenvalues --    1.29677   1.32674   1.37680   1.38003   1.38986
 Alpha virt. eigenvalues --    1.42174   1.43826   1.47489   1.51975   1.53926
 Alpha virt. eigenvalues --    1.59219   1.62252   1.64352   1.70392   1.72668
 Alpha virt. eigenvalues --    1.75988   1.77681   1.77874   1.79135   1.82965
 Alpha virt. eigenvalues --    1.84061   1.86506   1.89983   1.94721   1.96627
 Alpha virt. eigenvalues --    1.99149   2.00347   2.06489   2.07849   2.13551
 Alpha virt. eigenvalues --    2.21887   2.26893   2.29049   2.37441   2.45017
 Alpha virt. eigenvalues --    2.45497   2.56043   2.57760   2.73004   2.88657
 Alpha virt. eigenvalues --    3.01598   3.03319   3.07365   3.10691   3.17396
 Alpha virt. eigenvalues --    3.19413   3.21678   3.28741   3.30011   3.31661
 Alpha virt. eigenvalues --    3.33328   3.36437   3.39329   3.42596   3.43299
 Alpha virt. eigenvalues --    3.49501   3.51032   3.53194   3.56321   3.56688
 Alpha virt. eigenvalues --    3.63249   3.67498   3.68561   3.74108   3.77246
 Alpha virt. eigenvalues --    3.78878   3.80664   3.82947   3.85652   3.85975
 Alpha virt. eigenvalues --    3.92990   3.96359   3.97423   3.97548   3.99665
 Alpha virt. eigenvalues --    4.00543   4.02573   4.10221   4.14453   4.15376
 Alpha virt. eigenvalues --    4.21995   4.24039   4.27701   4.30125   4.31787
 Alpha virt. eigenvalues --    4.33976   4.37503   4.37895   4.41078   4.43586
 Alpha virt. eigenvalues --    4.44449   4.45968   4.47604   4.50840   4.51710
 Alpha virt. eigenvalues --    4.54632   4.55228   4.56712   4.57802   4.62944
 Alpha virt. eigenvalues --    4.63583   4.64777   4.66397   4.67790   4.69109
 Alpha virt. eigenvalues --    4.69443   4.73928   4.76235   4.78290   4.80133
 Alpha virt. eigenvalues --    4.83210   4.84460   4.86275   4.90773   4.93196
 Alpha virt. eigenvalues --    4.96967   4.99748   5.02502   5.08328   5.08656
 Alpha virt. eigenvalues --    5.10801   5.15849   5.18770   5.27687   5.28187
 Alpha virt. eigenvalues --    5.34052   5.38355   5.42310   5.43926   5.45260
 Alpha virt. eigenvalues --    5.50230   5.54996   5.55101   5.57773   5.57974
 Alpha virt. eigenvalues --    5.61301   5.63672   5.64222   5.68157   5.70931
 Alpha virt. eigenvalues --    5.74543   5.77537   5.79330   5.85352   5.87992
 Alpha virt. eigenvalues --    5.90261   5.92798   5.94298   5.95789   5.96031
 Alpha virt. eigenvalues --    5.99822   6.06982   6.08440   6.10753   6.17583
 Alpha virt. eigenvalues --    6.19867   6.21948   6.23616   6.24462   6.38820
 Alpha virt. eigenvalues --    6.47391   6.72653   6.74674   7.26244
          Condensed to atoms (all electrons):
               1          2          3          4          5          6
     1  C    4.631252   0.283103  -0.057677   0.021093   0.413519   0.425744
     2  C    0.283103   4.825936   0.364086  -0.069517  -0.024893  -0.039467
     3  C   -0.057677   0.364086   4.641587   0.279970   0.011919  -0.007896
     4  N    0.021093  -0.069517   0.279970   6.320497  -0.001382   0.000529
     5  H    0.413519  -0.024893   0.011919  -0.001382   0.634953  -0.026157
     6  H    0.425744  -0.039467  -0.007896   0.000529  -0.026157   0.651815
     7  H    0.425744  -0.039467  -0.007896   0.000529  -0.026157  -0.032175
     8  H   -0.035057   0.422716  -0.046685   0.000516  -0.007677  -0.009037
     9  H   -0.035057   0.422716  -0.046685   0.000516  -0.007677   0.011413
    10  H   -0.001290  -0.055376   0.429995  -0.032842  -0.000448  -0.001585
    11  H   -0.001290  -0.055376   0.429995  -0.032842  -0.000448   0.006647
    12  H    0.000730  -0.002206  -0.050590   0.415716  -0.000066   0.000077
    13  H    0.000730  -0.002206  -0.050590   0.415716  -0.000066   0.000020
               7          8          9         10         11         12
     1  C    0.425744  -0.035057  -0.035057  -0.001290  -0.001290   0.000730
     2  C   -0.039467   0.422716   0.422716  -0.055376  -0.055376  -0.002206
     3  C   -0.007896  -0.046685  -0.046685   0.429995   0.429995  -0.050590
     4  N    0.000529   0.000516   0.000516  -0.032842  -0.032842   0.415716
     5  H   -0.026157  -0.007677  -0.007677  -0.000448  -0.000448  -0.000066
     6  H   -0.032175  -0.009037   0.011413  -0.001585   0.006647   0.000077
     7  H    0.651815   0.011413  -0.009037   0.006647  -0.001585   0.000020
     8  H    0.011413   0.693025  -0.038745   0.011823  -0.010493  -0.002171
     9  H   -0.009037  -0.038745   0.693025  -0.010493   0.011823   0.008899
    10  H    0.006647   0.011823  -0.010493   0.665571  -0.032725  -0.013361
    11  H   -0.001585  -0.010493   0.011823  -0.032725   0.665571   0.012806
    12  H    0.000020  -0.002171   0.008899  -0.013361   0.012806   0.579248
    13  H    0.000077   0.008899  -0.002171   0.012806  -0.013361  -0.043803
              13
     1  C    0.000730
     2  C   -0.002206
     3  C   -0.050590
     4  N    0.415716
     5  H   -0.000066
     6  H    0.000020
     7  H    0.000077
     8  H    0.008899
     9  H   -0.002171
    10  H    0.012806
    11  H   -0.013361
    12  H   -0.043803
    13  H    0.579248
 Mulliken charges:
               1
     1  C   -0.071543
     2  C   -0.030048
     3  C    0.110466
     4  N   -0.318497
     5  H    0.034579
     6  H    0.020070
     7  H    0.020070
     8  H    0.001473
     9  H    0.001473
    10  H    0.021278
    11  H    0.021278
    12  H    0.094700
    13  H    0.094700
 Sum of Mulliken charges =  -0.00000
 Mulliken charges with hydrogens summed into heavy atoms:
               1
     1  C    0.003176
     2  C   -0.027103
     3  C    0.153023
     4  N   -0.129096
 Electronic spatial extent (au):  <R**2>=            406.0117
 Charge=             -0.0000 electrons
 Dipole moment (field-independent basis, Debye):
    X=             -0.1041    Y=              1.4443    Z=             -0.0000  Tot=              1.4481
 Quadrupole moment (field-independent basis, Debye-Ang):
   XX=            -26.8337   YY=            -33.2738   ZZ=            -26.0464
   XY=             -2.0649   XZ=             -0.0000   YZ=             -0.0000
 Traceless Quadrupole moment (field-independent basis, Debye-Ang):
   XX=              1.8842   YY=             -4.5558   ZZ=              2.6716
   XY=             -2.0649   XZ=             -0.0000   YZ=             -0.0000
 Octapole moment (field-independent basis, Debye-Ang**2):
  XXX=             -9.5135  YYY=             12.1326  ZZZ=              0.0000  XYY=              6.2599
  XXY=             -0.1757  XXZ=             -0.0000  XZZ=             -3.4685  YZZ=             -2.6109
  YYZ=             -0.0000  XYZ=              0.0000
 Hexadecapole moment (field-independent basis, Debye-Ang**3):
 XXXX=           -234.4730 YYYY=           -288.9183 ZZZZ=            -54.3144 XXXY=            -83.4115
 XXXZ=              0.0000 YYYX=           -101.9569 YYYZ=              0.0000 ZZZX=             -0.0000
 ZZZY=              0.0000 XXYY=            -95.2714 XXZZ=            -42.9405 YYZZ=            -51.7199
 XXYZ=              0.0000 YYXZ=             -0.0000 ZZXY=            -25.9310
 N-N= 1.307857003804D+02 E-N=-6.665450991014D+02  KE= 1.737204930196D+02
 Symmetry A'   KE= 1.650096972400D+02
 Symmetry A"   KE= 8.710795779666D+00
 Calling FoFJK, ICntrl=      2127 FMM=F ISym2X=1 I1Cent= 0 IOpClX= 0 NMat=1 NMatS=1 NMatT=0.
 ***** Axes restored to original set *****
 -------------------------------------------------------------------
 Center     Atomic                   Forces (Hartrees/Bohr)
 Number     Number              X              Y              Z
 -------------------------------------------------------------------
      1        6           0.000803009    0.000054613   -0.000000000
      2        6          -0.001029635    0.000369901   -0.000000000
      3        6           0.003914439   -0.000668418    0.000000000
      4        7          -0.002294676    0.005590182    0.000000000
      5        1          -0.000095628   -0.002536256   -0.000000000
      6        1          -0.001359252    0.000844791   -0.001977454
      7        1          -0.001359252    0.000844791    0.001977454
      8        1           0.001449019   -0.000888306   -0.001965132
      9        1           0.001449019   -0.000888306    0.001965132
     10        1          -0.001569875    0.000930582    0.002287407
     11        1          -0.001569875    0.000930582   -0.002287407
     12        1           0.000831354   -0.002292077    0.001301289
     13        1           0.000831354   -0.002292077   -0.001301289
 -------------------------------------------------------------------
 Cartesian Forces:  Max     0.005590182 RMS     0.001749854

 GradGradGradGradGradGradGradGradGradGradGradGradGradGradGradGradGradGrad
 Berny optimization.
 FormGI is forming the generalized inverse of G from B-inverse, IUseBI=4.
 Internal  Forces:  Max     0.002921253 RMS     0.001186448
 Search for a local minimum.
 Step number   1 out of a maximum of   67
 All quantities printed in internal units (Hartrees-Bohrs-Radians)
 Mixed Optimization -- RFO/linear search
 Second derivative matrix not updated -- first step.
 ITU=  0
     Eigenvalues ---    0.00291   0.00350   0.00835   0.03448   0.03742
     Eigenvalues ---    0.04536   0.04782   0.05309   0.05428   0.05485
     Eigenvalues ---    0.08388   0.10037   0.12248   0.13245   0.16000
     Eigenvalues ---    0.16000   0.16000   0.16000   0.16000   0.21898
     Eigenvalues ---    0.21990   0.28887   0.29288   0.33820   0.33820
     Eigenvalues ---    0.33904   0.33904   0.34150   0.34150   0.34323
     Eigenvalues ---    0.36370   0.44846   0.44846
 RFO step:  Lambda=-3.66761153D-04 EMin= 2.91386276D-03
 Linear search not attempted -- first point.
 Iteration  1 RMS(Cart)=  0.00810649 RMS(Int)=  0.00016047
 Iteration  2 RMS(Cart)=  0.00012801 RMS(Int)=  0.00010335
 Iteration  3 RMS(Cart)=  0.00000006 RMS(Int)=  0.00010335
 ClnCor:  largest displacement from symmetrization is 8.66D-10 for atom     7.
 Variable       Old X    -DE/DX   Delta X   Delta X   Delta X     New X
                                 (Linear)    (Quad)   (Total)
    R1        2.89406  -0.00216   0.00000  -0.00738  -0.00738   2.88668
    R2        2.06789  -0.00254   0.00000  -0.00738  -0.00738   2.06051
    R3        2.07078  -0.00254   0.00000  -0.00744  -0.00744   2.06335
    R4        2.07078  -0.00254   0.00000  -0.00744  -0.00744   2.06335
    R5        2.90238  -0.00220   0.00000  -0.00760  -0.00760   2.89478
    R6        2.07634  -0.00259   0.00000  -0.00765  -0.00765   2.06869
    R7        2.07634  -0.00259   0.00000  -0.00765  -0.00765   2.06869
    R8        2.76807   0.00016   0.00000   0.00045   0.00045   2.76851
    R9        2.07492  -0.00292   0.00000  -0.00861  -0.00861   2.06631
   R10        2.07492  -0.00292   0.00000  -0.00861  -0.00861   2.06631
   R11        1.92155  -0.00220   0.00000  -0.00491  -0.00491   1.91664
   R12        1.92155  -0.00220   0.00000  -0.00491  -0.00491   1.91664
    A1        1.94730  -0.00011   0.00000  -0.00107  -0.00108   1.94622
    A2        1.94029  -0.00003   0.00000   0.00000   0.00000   1.94029
    A3        1.94029  -0.00003   0.00000   0.00000   0.00000   1.94029
    A4        1.87889   0.00004   0.00000  -0.00015  -0.00015   1.87875
    A5        1.87889   0.00004   0.00000  -0.00015  -0.00015   1.87875
    A6        1.87494   0.00011   0.00000   0.00144   0.00144   1.87638
    A7        1.97219   0.00006   0.00000  -0.00012  -0.00012   1.97206
    A8        1.91677  -0.00010   0.00000  -0.00105  -0.00105   1.91572
    A9        1.91677  -0.00010   0.00000  -0.00105  -0.00105   1.91572
   A10        1.90085   0.00002   0.00000   0.00029   0.00029   1.90114
   A11        1.90085   0.00002   0.00000   0.00029   0.00029   1.90114
   A12        1.85247   0.00010   0.00000   0.00180   0.00180   1.85426
   A13        2.02902   0.00006   0.00000   0.00009   0.00009   2.02911
   A14        1.90656   0.00007   0.00000   0.00081   0.00081   1.90737
   A15        1.90656   0.00007   0.00000   0.00081   0.00081   1.90737
   A16        1.88226  -0.00012   0.00000  -0.00122  -0.00122   1.88105
   A17        1.88226  -0.00012   0.00000  -0.00122  -0.00122   1.88105
   A18        1.84874   0.00004   0.00000   0.00077   0.00077   1.84951
   A19        1.91135   0.00178   0.00000   0.01852   0.01824   1.92959
   A20        1.91135   0.00178   0.00000   0.01852   0.01824   1.92959
   A21        1.84242  -0.00020   0.00000   0.01467   0.01411   1.85654
    D1        3.14159   0.00000   0.00000   0.00000   0.00000   3.14159
    D2       -1.01544  -0.00001   0.00000  -0.00048  -0.00048  -1.01591
    D3        1.01544   0.00001   0.00000   0.00048   0.00048   1.01591
    D4       -1.04396  -0.00005   0.00000  -0.00091  -0.00091  -1.04487
    D5        1.08219  -0.00006   0.00000  -0.00139  -0.00139   1.08081
    D6        3.11307  -0.00004   0.00000  -0.00044  -0.00044   3.11264
    D7        1.04396   0.00005   0.00000   0.00091   0.00091   1.04487
    D8       -3.11307   0.00004   0.00000   0.00044   0.00044  -3.11264
    D9       -1.08219   0.00006   0.00000   0.00139   0.00139  -1.08081
   D10        3.14159  -0.00000   0.00000  -0.00000   0.00000   3.14159
   D11       -1.00741  -0.00006   0.00000  -0.00091  -0.00091  -1.00832
   D12        1.00741   0.00006   0.00000   0.00091   0.00091   1.00832
   D13        1.00651   0.00007   0.00000   0.00122   0.00122   1.00773
   D14        3.14068   0.00001   0.00000   0.00032   0.00032   3.14100
   D15       -1.12767   0.00013   0.00000   0.00213   0.00213  -1.12554
   D16       -1.00651  -0.00007   0.00000  -0.00122  -0.00122  -1.00773
   D17        1.12767  -0.00013   0.00000  -0.00213  -0.00213   1.12554
   D18       -3.14068  -0.00001   0.00000  -0.00032  -0.00032  -3.14100
   D19        1.00629   0.00088   0.00000   0.01916   0.01931   1.02561
   D20       -1.00629  -0.00088   0.00000  -0.01916  -0.01931  -1.02561
   D21       -1.14061   0.00084   0.00000   0.01901   0.01916  -1.12145
   D22        3.12999  -0.00092   0.00000  -0.01932  -0.01947   3.11052
   D23       -3.12999   0.00092   0.00000   0.01932   0.01947  -3.11052
   D24        1.14061  -0.00084   0.00000  -0.01901  -0.01916   1.12145
         Item               Value     Threshold  Converged?
 Maximum Force            0.002921     0.000450     NO 
 RMS     Force            0.001186     0.000300     NO 
 Maximum Displacement     0.029145     0.001800     NO 
 RMS     Displacement     0.008060     0.001200     NO 
 Predicted change in Energy=-1.867706D-04
 GradGradGradGradGradGradGradGradGradGradGradGradGradGradGradGradGradGrad

                          Input orientation:                          
 ---------------------------------------------------------------------
 Center     Atomic      Atomic             Coordinates (Angstroms)
 Number     Number       Type             X           Y           Z
 ---------------------------------------------------------------------
      1          6           0        1.430918    1.297254    0.000000
      2          6           0        0.003586    0.753035    0.000000
      3          6           0       -0.053075   -0.777770    0.000000
      4          7           0       -1.389991   -1.376916    0.000000
      5          1           0        1.443085    2.387560    0.000000
      6          1           0        1.981473    0.960135    0.880588
      7          1           0        1.981473    0.960135   -0.880588
      8          1           0       -0.535642    1.128319    0.875655
      9          1           0       -0.535642    1.128319   -0.875655
     10          1           0        0.483588   -1.158994   -0.873087
     11          1           0        0.483588   -1.158994    0.873087
     12          1           0       -1.916395   -1.073160   -0.811987
     13          1           0       -1.916395   -1.073160    0.811987
 ---------------------------------------------------------------------
                    Distance matrix (angstroms):
                    1          2          3          4          5
     1  C    0.000000
     2  C    1.527564   0.000000
     3  C    2.551070   1.531854   0.000000
     4  N    3.886993   2.545339   1.465033   0.000000
     5  H    1.090374   2.178033   3.501115   4.711433   0.000000
     6  H    1.091877   2.174940   2.816937   4.195714   1.761488
     7  H    1.091877   2.174940   2.816937   4.195714   1.761488
     8  H    2.159322   1.094704   2.152398   2.787990   2.503561
     9  H    2.159322   1.094704   2.152398   2.787990   2.503561
    10  H    2.773603   2.156047   1.093444   2.078477   3.776369
    11  H    2.773603   2.156047   1.093444   2.078477   3.776369
    12  H    4.181231   2.771396   2.053908   1.014245   4.891013
    13  H    4.181231   2.771396   2.053908   1.014245   4.891013
                    6          7          8          9         10
     6  H    0.000000
     7  H    1.761176   0.000000
     8  H    2.522733   3.073849   0.000000
     9  H    3.073849   2.522733   1.751310   0.000000
    10  H    3.132052   2.595077   3.054297   2.504124   0.000000
    11  H    2.595077   3.132052   2.504124   3.054297   1.746174
    12  H    4.710889   4.396859   3.098568   2.599431   2.402294
    13  H    4.396859   4.710889   2.599431   3.098568   2.933728
                   11         12         13
    11  H    0.000000
    12  H    2.933728   0.000000
    13  H    2.402294   1.623974   0.000000
 Stoichiometry    C3H9N
 Framework group  CS[SG(C3HN),X(H8)]
 Deg. of freedom    19
 Full point group                 CS      NOp   2
 Largest Abelian subgroup         CS      NOp   2
 Largest concise Abelian subgroup CS      NOp   2
                         Standard orientation:                         
 ---------------------------------------------------------------------
 Center     Atomic      Atomic             Coordinates (Angstroms)
 Number     Number       Type             X           Y           Z
 ---------------------------------------------------------------------
      1          6           0        1.425314    1.299675    0.000000
      2          6           0        0.000000    0.750191    0.000000
      3          6           0       -0.051010   -0.780812    0.000000
      4          7           0       -1.385705   -1.384889    0.000000
      5          1           0        1.433456    2.390018    0.000000
      6          1           0        1.977110    0.964590    0.880588
      7          1           0        1.977110    0.964590   -0.880588
      8          1           0       -0.540610    1.123483    0.875655
      9          1           0       -0.540610    1.123483   -0.875655
     10          1           0        0.487056   -1.160053   -0.873087
     11          1           0        0.487056   -1.160053    0.873087
     12          1           0       -1.913227   -1.083078   -0.811987
     13          1           0       -1.913227   -1.083078    0.811987
 ---------------------------------------------------------------------
 Rotational constants (GHZ):          24.9500886           3.6694150           3.4606706
 Basis read from rwf:  (5D, 7F)
 There are   167 symmetry adapted cartesian basis functions of A'  symmetry.
 There are   108 symmetry adapted cartesian basis functions of A"  symmetry.
 There are   146 symmetry adapted basis functions of A'  symmetry.
 There are   100 symmetry adapted basis functions of A"  symmetry.
   246 basis functions,   366 primitive gaussians,   275 cartesian basis functions
    17 alpha electrons       17 beta electrons
       nuclear repulsion energy       131.0211696868 Hartrees.
 NAtoms=   13 NActive=   13 NUniq=    9 SFac= 2.09D+00 NAtFMM=   60 NAOKFM=F Big=F
 Integral buffers will be    131072 words long.
 Raffenetti 2 integral format.
 Two-electron integral symmetry is turned on.
 One-electron integrals computed using PRISM.
 NBasis=   246 RedAO= T EigKep=  3.17D-04  NBF=   146   100
 NBsUse=   246 1.00D-06 EigRej= -1.00D+00 NBFU=   146   100
 Initial guess from the checkpoint file:  "/wrk/irikura/Gau-13251.chk"
 B after Tr=     0.000000   -0.000000    0.000000
         Rot=    0.999999   -0.000000    0.000000   -0.001281 Ang=  -0.15 deg.
 Initial guess orbital symmetries:
       Occupied  (A') (A') (A') (A') (A') (A') (A') (A') (A") (A')
                 (A") (A') (A') (A") (A') (A") (A')
       Virtual   (A') (A') (A") (A') (A') (A") (A') (A") (A") (A')
                 (A') (A') (A') (A") (A') (A") (A') (A") (A') (A")
                 (A') (A') (A") (A') (A') (A') (A") (A") (A') (A')
                 (A') (A") (A') (A') (A') (A') (A') (A') (A") (A")
                 (A") (A') (A') (A') (A") (A") (A') (A") (A") (A')
                 (A') (A") (A") (A') (A") (A') (A") (A') (A") (A")
                 (A') (A') (A") (A') (A') (A') (A') (A') (A") (A")
                 (A') (A") (A') (A") (A') (A') (A') (A") (A") (A')
                 (A') (A") (A') (A') (A") (A') (A') (A') (A") (A")
                 (A') (A') (A') (A') (A") (A') (A') (A') (A') (A')
                 (A") (A") (A') (A") (A') (A') (A") (A') (A') (A")
                 (A') (A") (A") (A') (A') (A") (A") (A') (A') (A")
                 (A') (A') (A") (A") (A') (A") (A") (A') (A") (A")
                 (A') (A") (A') (A") (A") (A") (A') (A') (A") (A")
                 (A') (A") (A') (A") (A') (A') (A") (A') (A') (A")
                 (A') (A") (A') (A') (A") (A') (A") (A') (A') (A')
                 (A') (A") (A') (A") (A') (A") (A') (A") (A") (A')
                 (A") (A') (A') (A") (A') (A") (A') (A') (A") (A')
                 (A') (A") (A') (A") (A') (A') (A") (A') (A') (A")
                 (A') (A') (A") (A") (A') (A') (A") (A') (A') (A")
                 (A") (A") (A') (A') (A') (A") (A') (A") (A") (A')
                 (A') (A') (A") (A') (A") (A') (A') (A") (A') (A")
                 (A') (A") (A') (A") (A') (A") (A") (A') (A')
 ExpMin= 7.42D-02 ExpMax= 1.02D+04 ExpMxC= 3.47D+02 IAcc=3 IRadAn=         5 AccDes= 0.00D+00
 Harris functional with IExCor=  402 and IRadAn=       5 diagonalized for initial guess.
 HarFok:  IExCor=  402 AccDes= 0.00D+00 IRadAn=         5 IDoV= 1 UseB2=F ITyADJ=14
 ICtDFT=  3500011 ScaDFX=  1.000000  1.000000  1.000000  1.000000
 FoFCou: FMM=F IPFlag=           0 FMFlag=      100000 FMFlg1=           0
         NFxFlg=           0 DoJE=T BraDBF=F KetDBF=T FulRan=T
         wScrn=  0.000000 ICntrl=       500 IOpCl=  0 I1Cent=   200000004 NGrid=           0
         NMat0=    1 NMatS0=      1 NMatT0=    0 NMatD0=    1 NMtDS0=    0 NMtDT0=    0
 Petite list used in FoFCou.
 Keep R1 ints in memory in symmetry-blocked form, NReq=692698457.
 Requested convergence on RMS density matrix=1.00D-08 within 128 cycles.
 Requested convergence on MAX density matrix=1.00D-06.
 Requested convergence on             energy=1.00D-06.
 No special actions if energy rises.
 Integral accuracy reduced to 1.0D-05 until final iterations.
 Initial convergence to 1.0D-05 achieved.  Increase integral accuracy.
 SCF Done:  E(RB3LYP) =  -174.566233670     A.U. after    9 cycles
            NFock=  9  Conv=0.30D-08     -V/T= 2.0046
 Calling FoFJK, ICntrl=      2127 FMM=F ISym2X=1 I1Cent= 0 IOpClX= 0 NMat=1 NMatS=1 NMatT=0.
 ***** Axes restored to original set *****
 -------------------------------------------------------------------
 Center     Atomic                   Forces (Hartrees/Bohr)
 Number     Number              X              Y              Z
 -------------------------------------------------------------------
      1        6           0.000182330   -0.000021048   -0.000000000
      2        6          -0.000362081    0.000093373    0.000000000
      3        6          -0.000550674   -0.000448737   -0.000000000
      4        7          -0.000439546    0.002116056    0.000000000
      5        1           0.000038868    0.000020417    0.000000000
      6        1           0.000038476    0.000041639   -0.000005633
      7        1           0.000038476    0.000041639    0.000005633
      8        1           0.000037814   -0.000048933   -0.000083250
      9        1           0.000037814   -0.000048933    0.000083250
     10        1          -0.000215589   -0.000092075    0.000043130
     11        1          -0.000215589   -0.000092075   -0.000043130
     12        1           0.000704850   -0.000780661    0.000457502
     13        1           0.000704850   -0.000780661   -0.000457502
 -------------------------------------------------------------------
 Cartesian Forces:  Max     0.002116056 RMS     0.000456398

 GradGradGradGradGradGradGradGradGradGradGradGradGradGradGradGradGradGrad
 Berny optimization.
 Using GEDIIS/GDIIS optimizer.
 FormGI is forming the generalized inverse of G from B-inverse, IUseBI=4.
 Internal  Forces:  Max     0.001113280 RMS     0.000268150
 Search for a local minimum.
 Step number   2 out of a maximum of   67
 All quantities printed in internal units (Hartrees-Bohrs-Radians)
 Mixed Optimization -- En-DIIS/RFO-DIIS
 Update second derivatives using D2CorX and points    1    2
 DE= -2.10D-04 DEPred=-1.87D-04 R= 1.12D+00
 TightC=F SS=  1.41D+00  RLast= 6.11D-02 DXNew= 5.0454D-01 1.8315D-01
 Trust test= 1.12D+00 RLast= 6.11D-02 DXMaxT set to 3.00D-01
 ITU=  1  0
 Use linear search instead of GDIIS.
     Eigenvalues ---    0.00291   0.00350   0.00835   0.03453   0.03539
     Eigenvalues ---    0.03743   0.04787   0.05304   0.05437   0.05482
     Eigenvalues ---    0.08387   0.10009   0.12244   0.13245   0.15981
     Eigenvalues ---    0.16000   0.16000   0.16000   0.16237   0.21901
     Eigenvalues ---    0.21977   0.28946   0.29783   0.33091   0.33820
     Eigenvalues ---    0.33859   0.33904   0.34143   0.34150   0.34318
     Eigenvalues ---    0.39029   0.43878   0.44846
 RFO step:  Lambda=-2.30201651D-05 EMin= 2.91386276D-03
 Quartic linear search produced a step of  0.18029.
 Iteration  1 RMS(Cart)=  0.00318657 RMS(Int)=  0.00003827
 Iteration  2 RMS(Cart)=  0.00002012 RMS(Int)=  0.00003314
 Iteration  3 RMS(Cart)=  0.00000000 RMS(Int)=  0.00003314
 ClnCor:  largest displacement from symmetrization is 2.12D-10 for atom     7.
 Variable       Old X    -DE/DX   Delta X   Delta X   Delta X     New X
                                 (Linear)    (Quad)   (Total)
    R1        2.88668   0.00031  -0.00133   0.00213   0.00080   2.88748
    R2        2.06051   0.00002  -0.00133   0.00098  -0.00035   2.06015
    R3        2.06335   0.00000  -0.00134   0.00091  -0.00043   2.06292
    R4        2.06335   0.00000  -0.00134   0.00091  -0.00043   2.06292
    R5        2.89478   0.00008  -0.00137   0.00126  -0.00011   2.89468
    R6        2.06869  -0.00010  -0.00138   0.00058  -0.00080   2.06789
    R7        2.06869  -0.00010  -0.00138   0.00058  -0.00080   2.06789
    R8        2.76851  -0.00111   0.00008  -0.00367  -0.00359   2.76492
    R9        2.06631  -0.00011  -0.00155   0.00067  -0.00088   2.06543
   R10        2.06631  -0.00011  -0.00155   0.00067  -0.00088   2.06543
   R11        1.91664  -0.00097  -0.00088  -0.00195  -0.00283   1.91381
   R12        1.91664  -0.00097  -0.00088  -0.00195  -0.00283   1.91381
    A1        1.94622   0.00002  -0.00019   0.00017  -0.00002   1.94620
    A2        1.94029   0.00006   0.00000   0.00049   0.00049   1.94079
    A3        1.94029   0.00006   0.00000   0.00049   0.00049   1.94079
    A4        1.87875  -0.00005  -0.00003  -0.00047  -0.00049   1.87825
    A5        1.87875  -0.00005  -0.00003  -0.00047  -0.00049   1.87825
    A6        1.87638  -0.00005   0.00026  -0.00030  -0.00004   1.87634
    A7        1.97206   0.00001  -0.00002   0.00010   0.00008   1.97214
    A8        1.91572   0.00001  -0.00019   0.00028   0.00009   1.91581
    A9        1.91572   0.00001  -0.00019   0.00028   0.00009   1.91581
   A10        1.90114  -0.00002   0.00005  -0.00021  -0.00016   1.90097
   A11        1.90114  -0.00002   0.00005  -0.00021  -0.00016   1.90097
   A12        1.85426   0.00000   0.00032  -0.00026   0.00006   1.85432
   A13        2.02911   0.00017   0.00002   0.00070   0.00072   2.02983
   A14        1.90737   0.00008   0.00015   0.00118   0.00132   1.90869
   A15        1.90737   0.00008   0.00015   0.00118   0.00132   1.90869
   A16        1.88105  -0.00019  -0.00022  -0.00190  -0.00212   1.87892
   A17        1.88105  -0.00019  -0.00022  -0.00190  -0.00212   1.87892
   A18        1.84951   0.00004   0.00014   0.00071   0.00084   1.85036
   A19        1.92959   0.00018   0.00329   0.00222   0.00541   1.93500
   A20        1.92959   0.00018   0.00329   0.00222   0.00541   1.93500
   A21        1.85654   0.00029   0.00254   0.00686   0.00922   1.86576
    D1        3.14159   0.00000   0.00000   0.00000   0.00000   3.14159
    D2       -1.01591  -0.00000  -0.00009  -0.00000  -0.00009  -1.01600
    D3        1.01591   0.00000   0.00009   0.00000   0.00009   1.01600
    D4       -1.04487  -0.00001  -0.00016  -0.00014  -0.00030  -1.04517
    D5        1.08081  -0.00002  -0.00025  -0.00014  -0.00039   1.08042
    D6        3.11264  -0.00001  -0.00008  -0.00013  -0.00021   3.11242
    D7        1.04487   0.00001   0.00016   0.00014   0.00030   1.04517
    D8       -3.11264   0.00001   0.00008   0.00013   0.00021  -3.11242
    D9       -1.08081   0.00002   0.00025   0.00014   0.00039  -1.08042
   D10        3.14159   0.00000   0.00000   0.00000   0.00000   3.14159
   D11       -1.00832  -0.00007  -0.00016  -0.00108  -0.00124  -1.00956
   D12        1.00832   0.00007   0.00016   0.00108   0.00124   1.00956
   D13        1.00773  -0.00001   0.00022  -0.00027  -0.00005   1.00768
   D14        3.14100  -0.00008   0.00006  -0.00135  -0.00129   3.13971
   D15       -1.12554   0.00006   0.00038   0.00081   0.00119  -1.12435
   D16       -1.00773   0.00001  -0.00022   0.00027   0.00005  -1.00768
   D17        1.12554  -0.00006  -0.00038  -0.00081  -0.00119   1.12435
   D18       -3.14100   0.00008  -0.00006   0.00135   0.00129  -3.13971
   D19        1.02561   0.00029   0.00348   0.00560   0.00913   1.03474
   D20       -1.02561  -0.00029  -0.00348  -0.00560  -0.00913  -1.03474
   D21       -1.12145   0.00022   0.00345   0.00508   0.00858  -1.11287
   D22        3.11052  -0.00036  -0.00351  -0.00613  -0.00969   3.10084
   D23       -3.11052   0.00036   0.00351   0.00613   0.00969  -3.10084
   D24        1.12145  -0.00022  -0.00345  -0.00508  -0.00858   1.11287
         Item               Value     Threshold  Converged?
 Maximum Force            0.001113     0.000450     NO 
 RMS     Force            0.000268     0.000300     YES
 Maximum Displacement     0.012671     0.001800     NO 
 RMS     Displacement     0.003183     0.001200     NO 
 Predicted change in Energy=-1.620209D-05
 GradGradGradGradGradGradGradGradGradGradGradGradGradGradGradGradGradGrad

                          Input orientation:                          
 ---------------------------------------------------------------------
 Center     Atomic      Atomic             Coordinates (Angstroms)
 Number     Number       Type             X           Y           Z
 ---------------------------------------------------------------------
      1          6           0        1.432275    1.297716    0.000000
      2          6           0        0.003965    0.754869    0.000000
      3          6           0       -0.054445   -0.775814    0.000000
      4          7           0       -1.389879   -1.373619    0.000000
      5          1           0        1.445581    2.387821    0.000000
      6          1           0        1.982697    0.960600    0.880391
      7          1           0        1.982697    0.960600   -0.880391
      8          1           0       -0.534705    1.130460    0.875336
      9          1           0       -0.534705    1.130460   -0.875336
     10          1           0        0.480165   -1.158800   -0.872994
     11          1           0        0.480165   -1.158800    0.872994
     12          1           0       -1.916618   -1.079865   -0.813577
     13          1           0       -1.916618   -1.079865    0.813577
 ---------------------------------------------------------------------
                    Distance matrix (angstroms):
                    1          2          3          4          5
     1  C    0.000000
     2  C    1.527990   0.000000
     3  C    2.551444   1.531797   0.000000
     4  N    3.885947   2.544260   1.463132   0.000000
     5  H    1.090186   2.178254   3.501238   4.710442   0.000000
     6  H    1.091650   2.175498   2.817830   4.194989   1.760836
     7  H    1.091650   2.175498   2.817830   4.194989   1.760836
     8  H    2.159444   1.094280   2.151917   2.787104   2.503738
     9  H    2.159444   1.094280   2.151917   2.787104   2.503738
    10  H    2.775447   2.156621   1.092980   2.074929   3.777918
    11  H    2.775447   2.156621   1.092980   2.074929   3.777918
    12  H    4.186871   2.777912   2.054761   1.012745   4.898075
    13  H    4.186871   2.777912   2.054761   1.012745   4.898075
                    6          7          8          9         10
     6  H    0.000000
     7  H    1.760782   0.000000
     8  H    2.523131   3.073881   0.000000
     9  H    3.073881   2.523131   1.750673   0.000000
    10  H    3.134297   2.597982   3.054068   2.504132   0.000000
    11  H    2.597982   3.134297   2.504132   3.054068   1.745989
    12  H    4.715685   4.401434   3.106067   2.607496   2.398819
    13  H    4.401434   4.715685   2.607496   3.106067   2.931778
                   11         12         13
    11  H    0.000000
    12  H    2.931778   0.000000
    13  H    2.398819   1.627154   0.000000
 Stoichiometry    C3H9N
 Framework group  CS[SG(C3HN),X(H8)]
 Deg. of freedom    19
 Full point group                 CS      NOp   2
 Largest Abelian subgroup         CS      NOp   2
 Largest concise Abelian subgroup CS      NOp   2
                         Standard orientation:                         
 ---------------------------------------------------------------------
 Center     Atomic      Atomic             Coordinates (Angstroms)
 Number     Number       Type             X           Y           Z
 ---------------------------------------------------------------------
      1          6           0        1.426075    1.299511    0.000000
      2          6           0        0.000000    0.750819    0.000000
      3          6           0       -0.052141   -0.780090    0.000000
      4          7           0       -1.385116   -1.383358    0.000000
      5          1           0        1.434918    2.389661    0.000000
      6          1           0        1.977873    0.964651    0.880391
      7          1           0        1.977873    0.964651   -0.880391
      8          1           0       -0.540203    1.124202    0.875336
      9          1           0       -0.540203    1.124202   -0.875336
     10          1           0        0.484032   -1.160883   -0.872994
     11          1           0        0.484032   -1.160883    0.872994
     12          1           0       -1.913054   -1.091764   -0.813577
     13          1           0       -1.913054   -1.091764    0.813577
 ---------------------------------------------------------------------
 Rotational constants (GHZ):          24.9825948           3.6689462           3.4610231
 Basis read from rwf:  (5D, 7F)
 There are   167 symmetry adapted cartesian basis functions of A'  symmetry.
 There are   108 symmetry adapted cartesian basis functions of A"  symmetry.
 There are   146 symmetry adapted basis functions of A'  symmetry.
 There are   100 symmetry adapted basis functions of A"  symmetry.
   246 basis functions,   366 primitive gaussians,   275 cartesian basis functions
    17 alpha electrons       17 beta electrons
       nuclear repulsion energy       131.0514124398 Hartrees.
 NAtoms=   13 NActive=   13 NUniq=    9 SFac= 2.09D+00 NAtFMM=   60 NAOKFM=F Big=F
 Integral buffers will be    131072 words long.
 Raffenetti 2 integral format.
 Two-electron integral symmetry is turned on.
 One-electron integrals computed using PRISM.
 NBasis=   246 RedAO= T EigKep=  3.17D-04  NBF=   146   100
 NBsUse=   246 1.00D-06 EigRej= -1.00D+00 NBFU=   146   100
 Initial guess from the checkpoint file:  "/wrk/irikura/Gau-13251.chk"
 B after Tr=     0.000000   -0.000000    0.000000
         Rot=    1.000000   -0.000000   -0.000000    0.000018 Ang=   0.00 deg.
 Initial guess orbital symmetries:
       Occupied  (A') (A') (A') (A') (A') (A') (A') (A') (A") (A')
                 (A") (A') (A') (A") (A') (A") (A')
       Virtual   (A') (A') (A") (A') (A') (A") (A') (A") (A") (A')
                 (A') (A') (A') (A") (A') (A") (A') (A") (A') (A")
                 (A') (A') (A') (A") (A') (A') (A") (A") (A') (A')
                 (A') (A") (A') (A') (A') (A') (A') (A') (A") (A")
                 (A") (A') (A') (A") (A') (A") (A') (A") (A") (A')
                 (A') (A") (A") (A') (A") (A') (A") (A') (A") (A")
                 (A') (A') (A") (A') (A') (A') (A') (A') (A") (A")
                 (A') (A") (A') (A") (A') (A') (A') (A") (A") (A')
                 (A') (A") (A') (A') (A") (A') (A') (A') (A") (A")
                 (A') (A') (A') (A') (A") (A') (A') (A') (A') (A')
                 (A") (A") (A') (A") (A') (A') (A") (A') (A') (A")
                 (A') (A") (A") (A') (A') (A") (A") (A') (A') (A")
                 (A') (A') (A") (A') (A") (A") (A") (A') (A") (A")
                 (A') (A") (A') (A") (A") (A") (A') (A') (A") (A")
                 (A') (A") (A') (A") (A') (A') (A") (A') (A') (A")
                 (A') (A") (A') (A') (A") (A') (A") (A') (A') (A')
                 (A') (A") (A') (A") (A') (A") (A') (A") (A") (A')
                 (A") (A') (A') (A") (A') (A") (A') (A') (A") (A')
                 (A') (A") (A') (A") (A') (A') (A") (A') (A') (A")
                 (A') (A') (A") (A") (A') (A') (A") (A') (A") (A')
                 (A") (A") (A') (A') (A') (A") (A') (A") (A") (A')
                 (A') (A') (A") (A") (A') (A') (A') (A") (A') (A")
                 (A') (A") (A') (A") (A') (A") (A") (A') (A')
 Keep R1 ints in memory in symmetry-blocked form, NReq=692698457.
 Requested convergence on RMS density matrix=1.00D-08 within 128 cycles.
 Requested convergence on MAX density matrix=1.00D-06.
 Requested convergence on             energy=1.00D-06.
 No special actions if energy rises.
 SCF Done:  E(RB3LYP) =  -174.566252283     A.U. after    8 cycles
            NFock=  8  Conv=0.22D-08     -V/T= 2.0045
 Calling FoFJK, ICntrl=      2127 FMM=F ISym2X=1 I1Cent= 0 IOpClX= 0 NMat=1 NMatS=1 NMatT=0.
 ***** Axes restored to original set *****
 -------------------------------------------------------------------
 Center     Atomic                   Forces (Hartrees/Bohr)
 Number     Number              X              Y              Z
 -------------------------------------------------------------------
      1        6          -0.000063635   -0.000020774   -0.000000000
      2        6           0.000124875    0.000028191   -0.000000000
      3        6          -0.000626020   -0.000367185   -0.000000000
      4        7           0.000051353    0.000538345   -0.000000000
      5        1           0.000000361    0.000159545   -0.000000000
      6        1           0.000068088   -0.000056862    0.000118627
      7        1           0.000068088   -0.000056862   -0.000118627
      8        1          -0.000068198    0.000038133    0.000117655
      9        1          -0.000068198    0.000038133   -0.000117655
     10        1           0.000198285    0.000000489   -0.000139384
     11        1           0.000198285    0.000000489    0.000139384
     12        1           0.000058358   -0.000150821    0.000038450
     13        1           0.000058358   -0.000150821   -0.000038450
 -------------------------------------------------------------------
 Cartesian Forces:  Max     0.000626020 RMS     0.000169617

 GradGradGradGradGradGradGradGradGradGradGradGradGradGradGradGradGradGrad
 Berny optimization.
 Using GEDIIS/GDIIS optimizer.
 FormGI is forming the generalized inverse of G from B-inverse, IUseBI=4.
 Internal  Forces:  Max     0.000251220 RMS     0.000083630
 Search for a local minimum.
 Step number   3 out of a maximum of   67
 All quantities printed in internal units (Hartrees-Bohrs-Radians)
 Mixed Optimization -- En-DIIS/RFO-DIIS
 Swapping is turned off.
 Update second derivatives using D2CorX and points    1    2    3
 DE= -1.86D-05 DEPred=-1.62D-05 R= 1.15D+00
 TightC=F SS=  1.41D+00  RLast= 2.65D-02 DXNew= 5.0454D-01 7.9536D-02
 Trust test= 1.15D+00 RLast= 2.65D-02 DXMaxT set to 3.00D-01
 ITU=  1  1  0
     Eigenvalues ---    0.00291   0.00350   0.00835   0.02727   0.03453
     Eigenvalues ---    0.03740   0.04787   0.05374   0.05436   0.05481
     Eigenvalues ---    0.08387   0.10568   0.12244   0.13248   0.15969
     Eigenvalues ---    0.16000   0.16000   0.16001   0.16216   0.21901
     Eigenvalues ---    0.22073   0.29026   0.29796   0.33794   0.33820
     Eigenvalues ---    0.33904   0.34088   0.34150   0.34272   0.34843
     Eigenvalues ---    0.39708   0.43064   0.44846
 En-DIIS/RFO-DIIS/Sim-DIIS IScMMF=       -3 using points:     3    2
 RFO step:  Lambda=-3.04745307D-06.
 DidBck=F Rises=F RFO-DIIS coefs:    1.27669   -0.27669
 Iteration  1 RMS(Cart)=  0.00103379 RMS(Int)=  0.00000615
 Iteration  2 RMS(Cart)=  0.00000207 RMS(Int)=  0.00000580
 Iteration  3 RMS(Cart)=  0.00000000 RMS(Int)=  0.00000580
[...]
 ! R9    R(3,10)                 1.0933         -DE/DX =    0.0001              !
 ! R10   R(3,11)                 1.0933         -DE/DX =    0.0001              !
 ! R11   R(4,12)                 1.0125         -DE/DX =    0.0                 !
 ! R12   R(4,13)                 1.0125         -DE/DX =    0.0                 !
 ! A1    A(2,1,5)              111.5109         -DE/DX =    0.0                 !
 ! A2    A(2,1,6)              111.1946         -DE/DX =    0.0                 !
 ! A3    A(2,1,7)              111.1946         -DE/DX =    0.0                 !
 ! A4    A(5,1,6)              107.6193         -DE/DX =    0.0                 !
 ! A5    A(5,1,7)              107.6193         -DE/DX =    0.0                 !
 ! A6    A(6,1,7)              107.5072         -DE/DX =    0.0                 !
 ! A7    A(1,2,3)              112.9945         -DE/DX =    0.0                 !
 ! A8    A(1,2,8)              109.77           -DE/DX =    0.0                 !
 ! A9    A(1,2,9)              109.77           -DE/DX =    0.0                 !
 ! A10   A(3,2,8)              108.9123         -DE/DX =    0.0                 !
 ! A11   A(3,2,9)              108.9123         -DE/DX =    0.0                 !
 ! A12   A(8,2,9)              106.2526         -DE/DX =    0.0                 !
 ! A13   A(2,3,4)              116.3065         -DE/DX =    0.0                 !
 ! A14   A(2,3,10)             109.3185         -DE/DX =    0.0                 !
 ! A15   A(2,3,11)             109.3185         -DE/DX =    0.0                 !
 ! A16   A(4,3,10)             107.7066         -DE/DX =    0.0                 !
 ! A17   A(4,3,11)             107.7066         -DE/DX =    0.0                 !
 ! A18   A(10,3,11)            105.9885         -DE/DX =    0.0                 !
 ! A19   A(3,4,12)             110.9883         -DE/DX =    0.0                 !
 ! A20   A(3,4,13)             110.9883         -DE/DX =    0.0                 !
 ! A21   A(12,4,13)            107.0365         -DE/DX =    0.0                 !
 ! D1    D(5,1,2,3)            180.0            -DE/DX =    0.0                 !
 ! D2    D(5,1,2,8)            -58.2187         -DE/DX =    0.0                 !
 ! D3    D(5,1,2,9)             58.2187         -DE/DX =    0.0                 !
 ! D4    D(6,1,2,3)            -59.8817         -DE/DX =    0.0                 !
 ! D5    D(6,1,2,8)             61.8996         -DE/DX =    0.0                 !
 ! D6    D(6,1,2,9)            178.3369         -DE/DX =    0.0                 !
 ! D7    D(7,1,2,3)             59.8817         -DE/DX =    0.0                 !
 ! D8    D(7,1,2,8)           -178.3369         -DE/DX =    0.0                 !
 ! D9    D(7,1,2,9)            -61.8996         -DE/DX =    0.0                 !
 ! D10   D(1,2,3,4)            180.0            -DE/DX =    0.0                 !
 ! D11   D(1,2,3,10)           -57.8032         -DE/DX =    0.0                 !
 ! D12   D(1,2,3,11)            57.8032         -DE/DX =    0.0                 !
 ! D13   D(8,2,3,4)             57.7373         -DE/DX =    0.0                 !
 ! D14   D(8,2,3,10)           179.9341         -DE/DX =    0.0                 !
 ! D15   D(8,2,3,11)           -64.4595         -DE/DX =    0.0                 !
 ! D16   D(9,2,3,4)            -57.7373         -DE/DX =    0.0                 !
 ! D17   D(9,2,3,10)            64.4595         -DE/DX =    0.0                 !
 ! D18   D(9,2,3,11)          -179.9341         -DE/DX =    0.0                 !
 ! D19   D(2,3,4,12)            59.4497         -DE/DX =    0.0                 !
 ! D20   D(2,3,4,13)           -59.4497         -DE/DX =    0.0                 !
 ! D21   D(10,3,4,12)          -63.5905         -DE/DX =    0.0                 !
 ! D22   D(10,3,4,13)          177.5101         -DE/DX =    0.0                 !
 ! D23   D(11,3,4,12)         -177.5101         -DE/DX =    0.0                 !
 ! D24   D(11,3,4,13)           63.5905         -DE/DX =    0.0                 !
 --------------------------------------------------------------------------------
 GradGradGradGradGradGradGradGradGradGradGradGradGradGradGradGradGradGrad


 ----------------------------------------------------------------------

 Electric dipole moment (input orientation):
 (Debye = 10**-18 statcoulomb cm , SI units = C m)
                  (au)            (Debye)         (10**-30 SI)
   Tot        0.536869D+00      0.136458D+01      0.455176D+01
   x         -0.566111D-01     -0.143891D+00     -0.479969D+00
   y          0.533876D+00      0.135698D+01      0.452639D+01
   z          0.000000D+00      0.000000D+00      0.000000D+00

 Dipole polarizability, Alpha (input orientation).
 (esu units = cm**3 , SI units = C**2 m**2 J**-1)
 Alpha(0;0):
               (au)            (10**-24 esu)      (10**-40 SI)
   iso        0.485433D+02      0.719337D+01      0.800371D+01
   aniso      0.107142D+02      0.158768D+01      0.176653D+01
   xx         0.517884D+02      0.767426D+01      0.853876D+01
   yx         0.461141D+01      0.683340D+00      0.760319D+00
   yy         0.499376D+02      0.739998D+01      0.823359D+01
   zx         0.000000D+00      0.000000D+00      0.000000D+00
   zy         0.000000D+00      0.000000D+00      0.000000D+00
   zz         0.439039D+02      0.650588D+01      0.723877D+01

 ----------------------------------------------------------------------

 Dipole orientation:
     6          2.93438709          0.31115625          2.15315782
     6          0.15717811          0.01666684          1.41879560
     6         -0.25653086         -0.02720199         -1.44624563
     7         -2.86982748         -0.30431048         -2.30236819
     1          3.17624081          0.33680191          4.19930513
     1          4.07136020         -1.24159773          1.40930256
     1          3.72043613          2.06782345          1.40930256
     1         -0.60037601         -1.72740998          2.23226429
     1         -0.94929333          1.56308630          2.23226429
     1          0.49413793          1.71145907         -2.27188551
     1          0.84207258         -1.56977011         -2.27188551
     1         -3.95967751          1.12710423         -1.65131463
     1         -3.63524836         -1.93245422         -1.65131463

 Electric dipole moment (dipole orientation):
 (Debye = 10**-18 statcoulomb cm , SI units = C m)
                  (au)            (Debye)         (10**-30 SI)
   Tot        0.536869D+00      0.136458D+01      0.455176D+01
   x          0.000000D+00      0.000000D+00      0.000000D+00
   y          0.000000D+00      0.000000D+00      0.000000D+00
   z          0.536869D+00      0.136458D+01      0.455176D+01

 Dipole polarizability, Alpha (dipole orientation).
 (esu units = cm**3 , SI units = C**2 m**2 J**-1)
 Alpha(0;0):
               (au)            (10**-24 esu)      (10**-40 SI)
   iso        0.485433D+02      0.719337D+01      0.800371D+01
   aniso      0.107142D+02      0.158768D+01      0.176653D+01
   xx         0.526368D+02      0.779996D+01      0.867863D+01
   yx         0.926016D+00      0.137221D+00      0.152679D+00
   yy         0.440021D+02      0.652044D+01      0.725496D+01
   zx         0.429072D+01      0.635820D+00      0.707445D+00
   zy         0.454979D+00      0.674210D-01      0.750160D-01
   zz         0.489910D+02      0.725972D+01      0.807753D+01

 ----------------------------------------------------------------------
 1\1\GINC-GAMBA\Freq\RB3LYP\Gen\C3H9N1\IRIKURA\16-Jun-2022\0\\#N Geom=A
 llCheck Guess=TCheck SCRF=Check GenChk RB3LYP/ChkBas Freq\\n-propylami
 ne, B3LYP/pcseg-2\\0,1\C,1.4326645514,1.2977066216,0.\C,0.0040062663,0
 .7554282964,0.\C,-0.0550497682,-0.7754482051,0.\N,-1.3901751367,-1.372
 6025301,0.\H,1.4464729909,2.388015731,0.\H,1.9829814301,0.960223003,0.
 880544209\H,1.9829814301,0.960223003,-0.880544209\H,-0.5345852155,1.13
 11996196,0.8755088234\H,-0.5345852155,1.1311996196,-0.8755088234\H,0.4
 803173084,-1.1580382668,-0.873043109\H,0.4803173084,-1.1580382668,0.87
 3043109\H,-1.917387475,-1.0820528123,-0.8140627425\H,-1.917387475,-1.0
 820528123,0.8140627425\\Version=ES64L-G16RevB.01\State=1-A'\HF=-174.56
 6254\RMSD=9.390e-10\RMSF=7.105e-05\ZeroPoint=0.1208255\Thermal=0.12653
 29\Dipole=-0.0566111,0.5338758,0.\DipoleDeriv=0.0504298,-0.038891,0.,-
 0.0594917,0.0399255,0.,0.,0.,0.1227054,0.0781102,-0.0291365,0.,-0.0811
 31,-0.0475274,0.,0.,0.,0.1674591,0.4982383,0.2035857,0.,0.1378134,0.40
 62949,0.,0.,0.,0.203292,-0.530726,-0.2526808,0.,-0.272979,-0.7289931,0
 .,0.,0.,-0.1932185,0.014299,-0.0171881,0.,-0.0558513,-0.1797142,0.,0.,
 0.,0.0699006,-0.0305941,0.0008509,-0.0625397,0.0451045,0.0376111,0.074
 246,-0.106789,0.0488485,-0.0843165,-0.0305941,0.0008509,0.0625397,0.04
 51045,0.0376111,-0.074246,0.106789,-0.0488485,-0.0843165,-0.0588364,0.
 0280163,0.0946181,0.00779,-0.006253,-0.0380313,0.1142289,-0.0636711,-0
 .093477,-0.0588364,0.0280163,-0.0946181,0.00779,-0.006253,0.0380313,-0
 .1142289,0.0636711,-0.093477,-0.0470507,0.0210169,0.0776795,0.0034013,
 -0.0129158,-0.0460828,0.1155642,-0.0585448,-0.081917,-0.0470507,0.0210
 169,-0.0776795,0.0034013,-0.0129158,0.0460828,-0.1155642,0.0585448,-0.
 081917,0.0813056,0.0172713,-0.0280476,0.109524,0.2365648,0.1302857,-0.
 039421,0.0885377,0.0746412,0.0813056,0.0172713,0.0280476,0.109524,0.23
 65648,-0.1302857,0.039421,-0.0885377,0.0746412\Polar=51.7884413,4.6114
 095,49.9375603,0.,0.,43.9038847\Quadrupole=1.3939864,-3.3424312,1.9484
 448,-1.3754367,0.,0.\PG=CS [SG(C3H1N1),X(H8)]\NImag=0\\0.46959372,-0.0
 3148347,0.55515290,0.,0.,0.55804058,-0.17197379,-0.03155926,0.,0.50206
 826,-0.03126792,-0.09172269,0.,-0.04173417,0.45816336,0.,0.,-0.0794401
 0,0.,0.,0.58391914,-0.00436840,-0.03422290,0.,-0.07748099,0.01122641,0
 .,0.51620338,-0.00809914,-0.01089666,0.,0.01596667,-0.17079626,0.,-0.0
 4563578,0.45013637,0.,0.,-0.00071512,0.,0.,-0.08259528,0.,0.,0.6156447
 6,0.00199317,-0.00315087,0.,-0.01403973,-0.00997544,0.,-0.18671541,-0.
 07548342,0.,0.54978397,0.00187104,-0.00781793,0.,-0.04236327,-0.015242
 35,0.,-0.02311953,-0.08086586,0.,-0.03500763,0.18605337,0.,0.,0.000819
 75,0.,0.,0.00144161,0.,0.,-0.10360240,0.,0.,0.68487317,-0.04572397,0.0
 0161115,0.,0.00031832,-0.03450980,0.,-0.00586443,0.00174714,0.,-0.0011
 2420,-0.00270115,0.,0.05050242,0.00063169,-0.30859859,0.,0.00075964,-0
 .00991377,0.,-0.00279523,0.00163527,0.,-0.00021158,-0.00095149,0.,0.00
 084181,0.33534490,0.,0.,-0.04676147,0.,0.,-0.00138755,0.,0.,0.00011057
 ,0.,0.,0.00063379,0.,0.,0.04601894,-0.10831644,0.03976715,-0.10160775,
 -0.01695811,0.00982689,-0.02681381,0.00087482,0.00172583,-0.00063257,0
 .00019590,-0.00046267,0.00060947,-0.00057071,0.00048303,0.00045894,0.1
 2045775,0.04000125,-0.07311891,0.06591240,-0.00556536,0.00335041,-0.01
 042477,-0.00048471,0.00107703,-0.00131297,0.00016185,-0.00001474,0.000
 18820,0.01584018,-0.00954690,0.02729354,-0.04228036,0.07530034,-0.1022
 2503,0.06551977,-0.21724972,0.00006150,-0.00091070,0.00079770,0.000221
 76,0.00052809,0.00005778,0.00003226,-0.00044233,0.00029520,0.00110351,
 0.00007496,0.00042240,0.11369847,-0.07310498,0.23436243,-0.10831644,0.
 03976715,0.10160775,-0.01695811,0.00982689,0.02681381,0.00087482,0.001
 72583,0.00063257,0.00019590,-0.00046267,-0.00060947,-0.00057071,0.0004
 8303,-0.00045894,0.00830334,-0.00613582,-0.01279503,0.12045775,0.04000
 125,-0.07311891,-0.06591240,-0.00556536,0.00335041,0.01042477,-0.00048
 471,0.00107703,0.00131297,0.00016185,-0.00001474,-0.00018820,0.0158401
 8,-0.00954690,-0.02729354,-0.00613582,0.00307032,0.00893477,-0.0422803
 6,0.07530034,0.10222503,-0.06551977,-0.21724972,-0.00006150,0.00091070
 ,0.00079770,-0.00022176,-0.00052809,0.00005778,-0.00003226,0.00044233,
 0.00029520,-0.00110351,-0.00007496,0.00042240,0.01279503,-0.00893477,-
 0.02119992,-0.11369847,0.07310498,0.23436243,-0.01730879,0.00969146,0.
 02592176,-0.10406394,0.04118941,0.09502065,-0.00129827,-0.00060106,0.0
 0031845,0.00146518,0.00020493,-0.00120122,0.00130808,-0.00021635,-0.00
 018011,0.00114105,0.00073529,-0.00039956,-0.00567922,-0.00248707,-0.00
 037386,0.11606509,-0.00702488,0.00395561,0.01102684,0.04079214,-0.0750
 5454,-0.06715127,0.01702631,-0.01552845,-0.02966378,0.00107634,0.00327
 342,0.00099490,0.00065153,0.00049628,0.00034857,0.00070549,0.00025797,
 -0.00036159,-0.00292559,-0.00033614,-0.00015254,-0.04298376,0.08494277
 ,-0.00060002,0.00054783,0.00080799,0.09601738,-0.06728507,-0.21207228,
 0.00105429,0.00054293,-0.00056497,-0.00159271,0.00038525,0.00097455,0.
 00040064,0.00051011,0.00007443,0.00041402,0.00019413,0.00085266,-0.000
 47864,0.00024953,0.00164456,-0.10693057,0.07489922,0.22786820,-0.01730
 879,0.00969146,-0.02592176,-0.10406394,0.04118941,-0.09502065,-0.00129
 827,-0.00060106,-0.00031845,0.00146518,0.00020493,0.00120122,0.0013080
 8,-0.00021635,0.00018011,-0.00567922,-0.00248707,0.00037386,0.00114105
 ,0.00073529,0.00039956,0.00762294,-0.00560251,0.01224933,0.11606509,-0
 .00702488,0.00395561,-0.01102684,0.04079214,-0.07505454,0.06715127,0.0
 1702631,-0.01552845,0.02966378,0.00107634,0.00327342,-0.00099490,0.000
 65153,0.00049628,-0.00034857,-0.00292559,-0.00033614,0.00015254,0.0007
 0549,0.00025797,0.00036159,-0.00560251,0.00348291,-0.00884841,-0.04298
 376,0.08494277,0.00060002,-0.00054783,0.00080799,-0.09601738,0.0672850
 7,-0.21207228,-0.00105429,-0.00054293,-0.00056497,0.00159271,-0.000385
 25,0.00097455,-0.00040064,-0.00051011,0.00007443,0.00047864,-0.0002495
 3,0.00164456,-0.00041402,-0.00019413,0.00085266,-0.01224933,0.00884841
 ,-0.02223424,0.10693057,-0.07489922,0.22786820,0.00079005,-0.00010339,
 -0.00059363,0.00017547,0.00127305,0.00122601,-0.10046364,0.04173118,0.
 08881749,-0.02358542,0.00416544,0.02956316,0.00011728,0.00011820,-0.00
 008757,0.00003021,-0.00001963,-0.00006869,0.00028896,0.00008787,0.0001
 5702,0.00047812,-0.00036299,-0.00000492,-0.00008077,-0.00005095,0.0001
 6491,0.11939535,0.00139918,0.00141564,-0.00050540,0.01489626,-0.015496
 15,-0.02867739,0.04350682,-0.07922286,-0.07275656,-0.00955339,0.004376
 58,0.01373101,-0.00002650,0.00028902,0.00045772,-0.00011326,-0.0000435
 0,0.00003198,-0.00096622,0.00005811,0.00062356,-0.00029644,-0.00662346
 ,0.00014014,0.00027882,0.00157837,0.00057615,-0.04092627,0.08957633,-0
 .00010762,0.00003708,0.00018732,0.00023602,0.00037835,-0.00006961,0.09
 474301,-0.07068605,-0.21573344,0.00132594,0.00167333,0.00189616,-0.000
 34020,-0.00000242,0.00019964,0.00005408,-0.00003432,-0.00009750,-0.000
 48932,-0.00037144,0.00019778,-0.00020794,0.00021893,0.00184447,-0.0000
 9936,-0.00050930,0.00101615,-0.10656038,0.07777083,0.22893526,0.000790
 05,-0.00010339,0.00059363,0.00017547,0.00127305,-0.00122601,-0.1004636
 4,0.04173118,-0.08881749,-0.02358542,0.00416544,-0.02956316,0.00011728
 ,0.00011820,0.00008757,0.00028896,0.00008787,-0.00015702,0.00003021,-0
 .00001963,0.00006869,-0.00008077,-0.00005095,-0.00016491,0.00047812,-0
 .00036299,0.00000492,0.00854623,-0.00564014,0.01188351,0.11939535,0.00
 139918,0.00141564,0.00050540,0.01489626,-0.01549615,0.02867739,0.04350
 682,-0.07922286,0.07275656,-0.00955339,0.00437658,-0.01373101,-0.00002
 650,0.00028902,-0.00045772,-0.00096622,0.00005811,-0.00062356,-0.00011
 326,-0.00004350,-0.00003198,0.00027882,0.00157837,-0.00057615,-0.00029
 644,-0.00662346,-0.00014014,-0.00564014,0.00393356,-0.00887759,-0.0409
 2627,0.08957633,0.00010762,-0.00003708,0.00018732,-0.00023602,-0.00037
 835,-0.00006961,-0.09474301,0.07068605,-0.21573344,-0.00132594,-0.0016
 7333,0.00189616,0.00034020,0.00000242,0.00019964,0.00048932,0.00037144
 ,0.00019778,-0.00005408,0.00003432,-0.00009750,0.00009936,0.00050930,0
 .00101615,0.00020794,-0.00021893,0.00184447,-0.01188351,0.00887759,-0.
 02127954,0.10656038,-0.07777083,0.22893526,0.00007481,0.00004746,0.000
 27522,0.00140054,0.00084111,-0.00029952,-0.01999998,0.01289632,-0.0313
 2345,-0.15302457,0.04675257,-0.14901558,0.00009128,0.00000195,0.000101
 00,0.00027984,0.00012708,0.00013551,-0.00004740,0.00001944,-0.00001844
 ,0.00005359,-0.00014155,0.00007107,0.00029694,-0.00115958,0.00043496,0
 .00072903,0.00072409,0.00047028,-0.00642088,-0.00328296,0.00090803,0.1
 6543130,-0.00020164,-0.00031085,0.00048304,-0.00065785,0.00195614,-0.0
 0231988,-0.01277490,-0.00093215,-0.01437907,0.07022966,-0.04822313,0.1
 2087750,0.00004021,0.00000343,0.00008105,0.00030083,-0.00004658,0.0001
 1562,0.00007472,-0.00000741,-0.00008542,-0.00003669,-0.00016833,-0.000
 01787,0.00012396,-0.00027642,0.00074165,0.00092235,0.00021489,0.000332
 15,-0.00119473,-0.00005653,-0.00007044,-0.05169483,0.04882703,0.000132
 19,0.00022460,0.00028259,0.00174772,-0.00013178,0.00037528,0.00003673,
 0.00202544,0.00181936,-0.14282586,0.07878260,-0.29524887,0.00008000,0.
 00004312,-0.00000361,0.00011759,0.00009619,-0.00003340,0.00006144,-0.0
 0000544,-0.00004996,-0.00012901,-0.00012777,-0.00019030,-0.00031138,-0
 .00061077,-0.00002122,-0.00000447,-0.00026354,0.00050561,0.00072541,0.
 00000608,0.00239771,0.15931528,-0.09289853,0.31618076,0.00007481,0.000
 04746,-0.00027522,0.00140054,0.00084111,0.00029952,-0.01999998,0.01289
 632,0.03132345,-0.15302457,0.04675257,0.14901558,0.00009128,0.00000195
 ,-0.00010100,-0.00004740,0.00001944,0.00001844,0.00027984,0.00012708,-
 0.00013551,0.00029694,-0.00115958,-0.00043496,0.00005359,-0.00014155,-
 0.00007107,-0.00642088,-0.00328296,-0.00090803,0.00072903,0.00072409,-
 0.00047028,0.01113551,-0.00513109,-0.01894564,0.16543130,-0.00020164,-
 0.00031085,-0.00048304,-0.00065785,0.00195614,0.00231988,-0.01277490,-
 0.00093215,0.01437907,0.07022966,-0.04822313,-0.12087750,0.00004021,0.
 00000343,-0.00008105,0.00007472,-0.00000741,0.00008542,0.00030083,-0.0
 0004658,-0.00011562,0.00012396,-0.00027642,-0.00074165,-0.00003669,-0.
 00016833,0.00001787,-0.00119473,-0.00005653,0.00007044,0.00092235,0.00
 021489,-0.00033215,-0.00513109,-0.00098007,0.01285981,-0.05169483,0.04
 882703,-0.00013219,-0.00022460,0.00028259,-0.00174772,0.00013178,0.000
 37528,-0.00003673,-0.00202544,0.00181936,0.14282586,-0.07878260,-0.295
 24887,-0.00008000,-0.00004312,-0.00000361,-0.00006144,0.00000544,-0.00
 004996,-0.00011759,-0.00009619,-0.00003340,0.00031138,0.00061077,-0.00
 002122,0.00012901,0.00012777,-0.00019030,-0.00072541,-0.00000608,0.002
 39771,0.00000447,0.00026354,0.00050561,0.01894564,-0.01285981,-0.02601
 394,-0.15931528,0.09289853,0.31618076\\0.00003356,0.00000213,0.,-0.000
 06852,-0.00007659,0.,0.00032071,0.00016882,0.,-0.00019418,-0.00006741,
 0.,-0.00000236,-0.00002000,0.,-0.00001575,0.00001439,-0.00002348,-0.00
 001575,0.00001439,0.00002348,0.00002121,-0.00001292,-0.00002526,0.0000
 2121,-0.00001292,0.00002526,-0.00004439,0.00000467,0.00003371,-0.00004
 439,0.00000467,-0.00003371,-0.00000568,-0.00000961,0.00000814,-0.00000
 568,-0.00000961,-0.00000814\\\@


 I WOULD TAKE COUNSEL OF MYSELF.
 I WOULD STOP AND LOOK WITHIN
 AND LOOKING WITHIN, LOOK BACK, ALSO
 THAT I MAY LOOK AHEAD WITH CLEARER UNDERSTANDING
 OF THE WAY I HAVE BEEN MOVING, AND IN WHAT DIRECTION.
 I NEED TO KNOW IF I AM GOING FORWARD OR RETREATING,
 WHETHER I HAVE BEEN WASTING, OR ENJOYING
 THE PRECIOUS MOMENTS OF LIFE.  THERE HAVE BEEN FRICTIONS,
 ANNOYANCES AND SOMETIMES WRATH,
 BUT WERE THEY BECAUSE I WAS RIGHT AND OTHERS WRONG.....
 HAVE I HAD MY THOUGHTS TOO SHARPLY FOCUSED
 ON THAT WHICH PLEASED ME, SERVED MY SELF-ESTEEM,
 UNDERGIRDED MY SECURITY,
 OF WHICH I DID NOT INQUIRE WHETHER IT SERVED OR HAMPERED OTHERS.....
 HAVE I BEEN TRYING TO STOP THE CLOCK
 TO HOLD THE WORLD
 IN PERPETUATION OF WHAT WAS AN IS ALREADY SLIPPING AWAY.....
 HAVE I BEEN CRITICAL OF OTHERS FOR WHAT REALLY NEEDED CHANGING IN ME...
 LET ME INDEED TAKE COUNSEL OF MYSELF
 AND SET MY DIRECTIONS STRAIGHT.

                          R.T. WESTON AS ADAPTED BY D. OSBORN 1967
 Job cpu time:       0 days  0 hours 27 minutes 15.0 seconds.
 Elapsed time:       0 days  0 hours  2 minutes 16.6 seconds.
 File lengths (MBytes):  RWF=     50 Int=      0 D2E=      0 Chk=      6 Scr=      1
 Normal termination of Gaussian 16 at Thu Jun 16 12:59:36 2022.
