 Entering Gaussian System, Link 0=g16
 AtFile(1): pcseg2.gbs
            -H     0
            S   4   1.00
                  0.754732D+02           0.427821D-02
                  0.113575D+02           0.328672D-01
                  0.260081D+01           0.159578D+00
                  0.735503D+00           0.500000D+00
            S   1   1.00
                  0.231761D+00           1.0000000
            S   1   1.00
                  0.741675D-01           1.0000000
            P   1   1.00
                  0.160000D+01           1.0000000
            P   1   1.00
                  0.450000D+00           1.0000000
            D   1   1.00
                  0.125000D+01           1.0000000
            ****
            -C     0
            S   7   1.00
                  0.731999D+04           0.695369D-03
                  0.109818D+04           0.537138D-02
                  0.250014D+03           0.274734D-01
                  0.707586D+02           0.105078D+00
                  0.228595D+02           0.291262D+00
                  0.803936D+01           0.500000D+00
                  0.289309D+01           0.362224D+00
            S   2   1.00
                  0.521640D+01          -0.957844D-01
                  0.556124D+00           0.500000D+00
            S   1   1.00
                  0.228813D+00           1.0000000
            S   1   1.00
                  0.936338D-01           1.0000000
            P   4   1.00
                  0.339855D+02           0.818395D-02
                  0.772957D+01           0.586921D-01
                  0.224954D+01           0.222514D+00
                  0.767681D+00           0.500000D+00
            P   1   1.00
                  0.263283D+00           1.0000000
            P   1   1.00
                  0.848744D-01           1.0000000
            D   1   1.00
                  0.140000D+01           1.0000000
            D   1   1.00
                  0.450000D+00           1.0000000
            F   1   1.00
                  0.950000D+00           1.0000000
            ****
            -O     0
            S   7   1.00
                  0.135887D+05           0.665492D-03
                  0.203847D+04           0.514222D-02
                  0.464041D+03           0.263472D-01
                  0.131339D+03           0.101500D+00
                  0.425340D+02           0.285877D+00
                  0.150429D+02           0.500000D+00
                  0.546616D+01           0.368211D+00
            S   2   1.00
                  0.100915D+02          -0.100084D+00
                  0.110429D+01           0.500000D+00
            S   1   1.00
                  0.448082D+00           1.0000000
            S   1   1.00
                  0.175325D+00           1.0000000
            P   4   1.00
                  0.608220D+02           0.908253D-02
                  0.140332D+02           0.645878D-01
                  0.418244D+01           0.241502D+00
                  0.142490D+01           0.500000D+00
            P   1   1.00
                  0.478741D+00           1.0000000
            P   1   1.00
                  0.146257D+00           1.0000000
            D   1   1.00
                  0.220000D+01           1.0000000
            D   1   1.00
                  0.650000D+00           1.0000000
            F   1   1.00
                  0.110000D+01           1.0000000
            ****
            -N     0
            S   7   1.00
                  0.101643D+05           0.682757D-03
                  0.152481D+04           0.527488D-02
                  0.347119D+03           0.270037D-01
                  0.982389D+02           0.103673D+00
                  0.317799D+02           0.289575D+00
                  0.112240D+02           0.500000D+00
                  0.406611D+01           0.364621D+00
            S   2   1.00
                  0.747898D+01          -0.975681D-01
                  0.805040D+00           0.500000D+00
            S   1   1.00
                  0.324626D+00           1.0000000
            S   1   1.00
                  0.128132D+00           1.0000000
            P   4   1.00
                  0.482704D+02           0.829547D-02
                  0.110815D+02           0.596223D-01
                  0.326643D+01           0.227889D+00
                  0.111680D+01           0.500000D+00
            P   1   1.00
                  0.382049D+00           1.0000000
            P   1   1.00
                  0.121222D+00           1.0000000
            D   1   1.00
                  0.180000D+01           1.0000000
            D   1   1.00
                  0.550000D+00           1.0000000
            F   1   1.00
                  0.102000D+01           1.0000000
            ****
            -F     0
            S   7   1.00
                  0.174507D+05           0.655972D-03
                  0.261768D+04           0.506944D-02
                  0.595857D+03           0.259899D-01
                  0.168651D+03           0.100353D+00
                  0.546654D+02           0.284095D+00
                  0.193717D+02           0.500000D+00
                  0.706202D+01           0.370721D+00
            S   2   1.00
                  0.131197D+02          -0.101997D+00
                  0.145046D+01           0.500000D+00
            S   1   1.00
                  0.588255D+00           1.0000000
            S   1   1.00
                  0.227960D+00           1.0000000
            P   4   1.00
                  0.779407D+02           0.931135D-02
                  0.180425D+02           0.663964D-01
                  0.542342D+01           0.246386D+00
                  0.184876D+01           0.500000D+00
            P   1   1.00
                  0.617455D+00           1.0000000
            P   1   1.00
                  0.185496D+00           1.0000000
            D   1   1.00
                  0.280000D+01           1.0000000
            D   1   1.00
                  0.800000D+00           1.0000000
            F   1   1.00
                  0.120000D+01           1.0000000
            ****
            -Cl     0
            S   8   1.00
                  0.154272D+06           0.222473D-03
                  0.231232D+05           0.172590D-02
                  0.526257D+04           0.899286D-02
                  0.148995D+04           0.367724D-01
                  0.485417D+03           0.121446D+00
                  0.174634D+03           0.304148D+00
                  0.672393D+02           0.500000D+00
                  0.265780D+02           0.360252D+00
            S   3   1.00
                  0.131826D+03          -0.531330D-01
                  0.400703D+02          -0.233346D+00
                  0.789448D+01           0.500000D+00
            S   2   1.00
                  0.427711D+01           0.500000D+00
                  0.196233D+01           0.370517D+00
            S   1   1.00
                  0.520793D+00           1.0000000
            S   1   1.00
                  0.181633D+00           1.0000000
            P   7   1.00
                  0.124440D+04           0.988206D-03
                  0.295109D+03           0.829674D-02
                  0.947224D+02           0.430906D-01
                  0.352588D+02           0.148443D+00
                  0.144211D+02           0.344744D+00
                  0.610371D+01           0.500000D+00
                  0.258886D+01           0.348278D+00
            P   2   1.00
                  0.109447D+02          -0.196768D-01
                  0.104413D+01           0.500000D+00
            P   1   1.00
                  0.376184D+00           1.0000000
            P   1   1.00
                  0.120613D+00           1.0000000
            D   1   1.00
                  0.231000D+01           1.0000000
            D   1   1.00
                  0.520000D+00           1.0000000
            F   1   1.00
                  0.720000D+00           1.0000000
            ****
            -S     0
            S   8   1.00
                  0.134700D+06           0.226231D-03
                  0.201904D+05           0.175488D-02
                  0.459528D+04           0.914190D-02
                  0.130109D+04           0.373551D-01
                  0.423902D+03           0.123121D+00
                  0.152485D+03           0.306801D+00
                  0.586925D+02           0.500000D+00
                  0.231461D+02           0.354358D+00
            S   3   1.00
                  0.116327D+03          -0.491772D-01
                  0.352841D+02          -0.215962D+00
                  0.677831D+01           0.500000D+00
            S   2   1.00
                  0.360404D+01           0.500000D+00
                  0.164871D+01           0.366278D+00
            S   1   1.00
                  0.421821D+00           1.0000000
            S   1   1.00
                  0.147554D+00           1.0000000
            P   7   1.00
                  0.104863D+04           0.105273D-02
                  0.248717D+03           0.879338D-02
                  0.797887D+02           0.453358D-01
                  0.296023D+02           0.154476D+00
                  0.120627D+02           0.352366D+00
                  0.507628D+01           0.500000D+00
                  0.213375D+01           0.346429D+00
            P   2   1.00
                  0.928958D+01          -0.185932D-01
                  0.837819D+00           0.500000D+00
            P   1   1.00
                  0.301495D+00           1.0000000
            P   1   1.00
                  0.974740D-01           1.0000000
            D   1   1.00
                  0.210000D+01           1.0000000
            D   1   1.00
                  0.480000D+00           1.0000000
            F   1   1.00
                  0.660000D+00           1.0000000
            ****
            -Br     0
            S    10   1.00
                  0.233625D+07           0.532336D-04
                  0.349961D+06           0.413715D-03
                  0.796444D+05           0.217123D-02
                  0.225555D+05           0.910109D-02
                  0.735546D+04           0.323789D-01
                  0.265352D+04           0.988755D-01
                  0.103517D+04           0.248138D+00
                  0.422205D+03           0.474328D+00
                  0.180035D+03           0.500000D+00
                  0.793308D+02           0.187769D+00
            S    4   1.00
                  0.620834D+03          -0.226511D-01
                  0.190829D+03          -0.109497D+00
                  0.312505D+02           0.500000D+00
                  0.135270D+02           0.492812D+00
            S    2   1.00
                  0.216097D+02          -0.165418D+00
                  0.372566D+01           0.500000D+00
            S    1   1.00
                  0.169770D+01           1.0000000
            S    1   1.00
                  0.489332D+00           1.0000000
            S    1   1.00
                  0.175712D+00           1.0000000
            P    8   1.00
                  0.960829D+04           0.478974D-03
                  0.227618D+04           0.417853D-02
                  0.736723D+03           0.229315D-01
                  0.281579D+03           0.892653D-01
                  0.118395D+03           0.255288D+00
                  0.527481D+02           0.479074D+00
                  0.245098D+02           0.500000D+00
                  0.112009D+02           0.200944D+00
            P    4   1.00
                  0.587849D+02          -0.189674D-01
                  0.918962D+01           0.264104D+00
                  0.413895D+01           0.500000D+00
                  0.184225D+01           0.319316D+00
            P    1   1.00
                  0.713862D+00           1.0000000
            P    1   1.00
                  0.274232D+00           1.0000000
            P    1   1.00
                  0.944411D-01           1.0000000
            D    7   1.00
                  0.398470D+03           0.204066D-02
                  0.118967D+03           0.175171D-01
                  0.450197D+02           0.829708D-01
                  0.190320D+02           0.236284D+00
                  0.855686D+01           0.428468D+00
                  0.382950D+01           0.500000D+00
                  0.166291D+01           0.349360D+00
            D    1   1.00
                  0.672953D+00           1.0000000
            D    1   1.00
                  0.252000D+00           1.0000000
            F    1   1.00
                  0.530000D+00           1.0000000
            ****
            -Si     0
            S    8   1.00
                  0.996133D+05           0.235546D-03
                  0.149311D+05           0.182707D-02
                  0.339820D+04           0.951425D-02
                  0.962140D+03           0.388172D-01
                  0.313430D+03           0.127328D+00
                  0.112683D+03           0.313522D+00
                  0.433372D+02           0.500000D+00
                  0.170029D+02           0.340347D+00
            S    3   1.00
                  0.884208D+02          -0.404451D-01
                  0.266756D+02          -0.178059D+00
                  0.479640D+01           0.500000D+00
            S    2   1.00
                  0.239385D+01           0.500000D+00
                  0.108333D+01           0.338016D+00
            S    1   1.00
                  0.252420D+00           1.0000000
            S    1   1.00
                  0.891210D-01           1.0000000
            P    7   1.00
                  0.709901D+03           0.123028D-02
                  0.168426D+03           0.101366D-01
                  0.539946D+02           0.511840D-01
                  0.198646D+02           0.169967D+00
                  0.801369D+01           0.370717D+00
                  0.331870D+01           0.500000D+00
                  0.136112D+01           0.344128D+00
            P    2   1.00
                  0.622158D+01          -0.166609D-01
                  0.503049D+00           0.500000D+00
            P    1   1.00
                  0.179848D+00           1.0000000
            P    1   1.00
                  0.591912D-01           1.0000000
            D    1   1.00
                  0.168000D+01           1.0000000
            D    1   1.00
                  0.380000D+00           1.0000000
            F    1   1.00
                  0.540000D+00           1.0000000
            ****
            -P     0
            S    8   1.00
                  0.116416D+06           0.230715D-03
                  0.174500D+05           0.178960D-02
                  0.397149D+04           0.932116D-02
                  0.112447D+04           0.380591D-01
                  0.366347D+03           0.125148D+00
                  0.131757D+03           0.310022D+00
                  0.506988D+02           0.500000D+00
                  0.199436D+02           0.347528D+00
            S    3   1.00
                  0.101878D+03          -0.446755D-01
                  0.308249D+02          -0.196376D+00
                  0.573688D+01           0.500000D+00
            S    2   1.00
                  0.296868D+01           0.500000D+00
                  0.135315D+01           0.355098D+00
            S    1   1.00
                  0.332196D+00           1.0000000
            S    1   1.00
                  0.116229D+00           1.0000000
            P    7   1.00
                  0.873928D+03           0.112375D-02
                  0.207298D+03           0.933330D-02
                  0.664628D+02           0.477213D-01
                  0.245665D+02           0.160733D+00
                  0.996820D+01           0.359760D+00
                  0.416536D+01           0.500000D+00
                  0.173022D+01           0.346593D+00
            P    2   1.00
                  0.772530D+01          -0.175718D-01
                  0.657252D+00           0.500000D+00
            P    1   1.00
                  0.239903D+00           1.0000000
            P    1   1.00
                  0.800988D-01           1.0000000
            D    1   1.00
                  0.189000D+01           1.0000000
            D    1   1.00
                  0.430000D+00           1.0000000
            F    1   1.00
                  0.600000D+00           1.0000000
            ****
            
 Initial command:
 /usr/local/apps/g16_b01_avx/g16/l1.exe "/wrk/irikura/Gau-13481.inp" -scrdir="/wrk/irikura/"
 Entering Link 1 = /usr/local/apps/g16_b01_avx/g16/l1.exe PID=     13483.
  
 Copyright (c) 1988-2017, Gaussian, Inc.  All Rights Reserved.
  
 This is part of the Gaussian(R) 16 program.  It is based on
 the Gaussian(R) 09 system (copyright 2009, Gaussian, Inc.),
 the Gaussian(R) 03 system (copyright 2003, Gaussian, Inc.),
 the Gaussian(R) 98 system (copyright 1998, Gaussian, Inc.),
 the Gaussian(R) 94 system (copyright 1995, Gaussian, Inc.),
 the Gaussian 92(TM) system (copyright 1992, Gaussian, Inc.),
 the Gaussian 90(TM) system (copyright 1990, Gaussian, Inc.),
 the Gaussian 88(TM) system (copyright 1988, Gaussian, Inc.),
 the Gaussian 86(TM) system (copyright 1986, Carnegie Mellon
 University), and the Gaussian 82(TM) system (copyright 1983,
 Carnegie Mellon University). Gaussian is a federally registered
 trademark of Gaussian, Inc.
  
 This software contains proprietary and confidential information,
 including trade secrets, belonging to Gaussian, Inc.
  
 This software is provided under written license and may be
 used, copied, transmitted, or stored only in accord with that
 written license.
  
 The following legend is applicable only to US Government
 contracts under FAR:
  
                    RESTRICTED RIGHTS LEGEND
  
 Use, reproduction and disclosure by the US Government is
 subject to restrictions as set forth in subparagraphs (a)
 and (c) of the Commercial Computer Software - Restricted
 Rights clause in FAR 52.227-19.
  
 Gaussian, Inc.
 340 Quinnipiac St., Bldg. 40, Wallingford CT 06492
  
  
 ---------------------------------------------------------------
 Warning -- This program may not be used in any manner that
 competes with the business of Gaussian, Inc. or will provide
 assistance to any competitor of Gaussian, Inc.  The licensee
 of this program is prohibited from giving any competitor of
 Gaussian, Inc. access to this program.  By using this program,
 the user acknowledges that Gaussian, Inc. is engaged in the
 business of creating and licensing software in the field of
 computational chemistry and represents and warrants to the
 licensee that it is not a competitor of Gaussian, Inc. and that
 it will not use this program in any manner prohibited above.
 ---------------------------------------------------------------
  

 Cite this work as:
 Gaussian 16, Revision B.01,
 M. J. Frisch, G. W. Trucks, H. B. Schlegel, G. E. Scuseria, 
 M. A. Robb, J. R. Cheeseman, G. Scalmani, V. Barone, 
 G. A. Petersson, H. Nakatsuji, X. Li, M. Caricato, A. V. Marenich, 
 J. Bloino, B. G. Janesko, R. Gomperts, B. Mennucci, H. P. Hratchian, 
 J. V. Ortiz, A. F. Izmaylov, J. L. Sonnenberg, D. Williams-Young, 
 F. Ding, F. Lipparini, F. Egidi, J. Goings, B. Peng, A. Petrone, 
 T. Henderson, D. Ranasinghe, V. G. Zakrzewski, J. Gao, N. Rega, 
 G. Zheng, W. Liang, M. Hada, M. Ehara, K. Toyota, R. Fukuda, 
 J. Hasegawa, M. Ishida, T. Nakajima, Y. Honda, O. Kitao, H. Nakai, 
 T. Vreven, K. Throssell, J. A. Montgomery, Jr., J. E. Peralta, 
 F. Ogliaro, M. J. Bearpark, J. J. Heyd, E. N. Brothers, K. N. Kudin, 
 V. N. Staroverov, T. A. Keith, R. Kobayashi, J. Normand, 
 K. Raghavachari, A. P. Rendell, J. C. Burant, S. S. Iyengar, 
 J. Tomasi, M. Cossi, J. M. Millam, M. Klene, C. Adamo, R. Cammi, 
 J. W. Ochterski, R. L. Martin, K. Morokuma, O. Farkas, 
 J. B. Foresman, and D. J. Fox, Gaussian, Inc., Wallingford CT, 2016.
 
 ******************************************
 Gaussian 16:  ES64L-G16RevB.01 20-Dec-2017
                20-Jun-2022 
 ******************************************
 %mem=1000mw
 %nprocs=12
 Will use up to   12 processors via shared memory.
 --------------------
 # b3lyp/gen opt freq
 --------------------
 1/18=20,19=15,26=3,38=1/1,3;
 2/9=110,12=2,17=6,18=5,40=1/2;
 3/5=7,11=2,25=1,30=1,71=1,74=-5/1,2,3;
 4//1;
 5/5=2,38=5/2;
 6/7=2,8=2,9=2,10=2,28=1/1;
 7//1,2,3,16;
 1/18=20,19=15,26=3/3(2);
 2/9=110/2;
 99//99;
 2/9=110/2;
 3/5=7,6=1,11=2,25=1,30=1,71=1,74=-5,82=7/1,2,3;
 4/5=5,16=3,69=1/1;
 5/5=2,38=5/2;
 7//1,2,3,16;
 1/18=20,19=15,26=3/3(-5);
 2/9=110/2;
 6/7=2,8=2,9=2,10=2,19=2,28=1/1;
 99/9=1/99;
 -----------------------------
 propyl nitrite, B3LYP/pcseg-2
 -----------------------------
 Symbolic Z-matrix:
 Charge =  0 Multiplicity = 1
 C                    -0.27816   0.70801   0.01037 
 O                     0.38319  -0.50717  -0.40341 
 N                     1.74731  -0.58469  -0.14394 
 C                    -1.75247   0.56304  -0.33752 
 H                     0.18625   1.55601  -0.5046 
 H                    -0.12161   0.84811   1.0864 
 C                    -2.45629  -0.55633   0.43479 
 H                    -2.23268   1.52656  -0.12796 
 H                    -1.84545   0.3958   -1.41663 
 H                    -3.51167  -0.61962   0.15503 
 H                    -1.99181  -1.5245    0.23016 
 H                    -2.40653  -0.38147   1.51523 
 O                     2.20463   0.36937   0.38958 
 

 GradGradGradGradGradGradGradGradGradGradGradGradGradGradGradGradGradGrad
 Berny optimization.
 Initialization pass.
                           ----------------------------
                           !    Initial Parameters    !
                           ! (Angstroms and Degrees)  !
 --------------------------                            --------------------------
 ! Name  Definition              Value          Derivative Info.                !
 --------------------------------------------------------------------------------
 ! R1    R(1,2)                  1.444          estimate D2E/DX2                !
 ! R2    R(1,4)                  1.5217         estimate D2E/DX2                !
 ! R3    R(1,5)                  1.0954         estimate D2E/DX2                !
 ! R4    R(1,6)                  1.0963         estimate D2E/DX2                !
 ! R5    R(2,3)                  1.3907         estimate D2E/DX2                !
 ! R6    R(3,13)                 1.1849         estimate D2E/DX2                !
 ! R7    R(4,7)                  1.5313         estimate D2E/DX2                !
 ! R8    R(4,8)                  1.0968         estimate D2E/DX2                !
 ! R9    R(4,9)                  1.0959         estimate D2E/DX2                !
 ! R10   R(7,10)                 1.0937         estimate D2E/DX2                !
 ! R11   R(7,11)                 1.0931         estimate D2E/DX2                !
 ! R12   R(7,12)                 1.0956         estimate D2E/DX2                !
 ! A1    A(2,1,4)              107.3398         estimate D2E/DX2                !
 ! A2    A(2,1,5)              108.8183         estimate D2E/DX2                !
 ! A3    A(2,1,6)              108.867          estimate D2E/DX2                !
 ! A4    A(4,1,5)              112.1489         estimate D2E/DX2                !
 ! A5    A(4,1,6)              112.0176         estimate D2E/DX2                !
 ! A6    A(5,1,6)              107.574          estimate D2E/DX2                !
 ! A7    A(1,2,3)              116.2738         estimate D2E/DX2                !
 ! A8    A(2,3,13)             114.6893         estimate D2E/DX2                !
 ! A9    A(1,4,7)              113.556          estimate D2E/DX2                !
 ! A10   A(1,4,8)              107.2674         estimate D2E/DX2                !
 ! A11   A(1,4,9)              108.7745         estimate D2E/DX2                !
 ! A12   A(7,4,8)              110.1562         estimate D2E/DX2                !
 ! A13   A(7,4,9)              110.2465         estimate D2E/DX2                !
 ! A14   A(8,4,9)              106.5617         estimate D2E/DX2                !
 ! A15   A(4,7,10)             110.9058         estimate D2E/DX2                !
 ! A16   A(4,7,11)             110.9601         estimate D2E/DX2                !
 ! A17   A(4,7,12)             111.0894         estimate D2E/DX2                !
 ! A18   A(10,7,11)            108.1125         estimate D2E/DX2                !
 ! A19   A(10,7,12)            107.7769         estimate D2E/DX2                !
 ! A20   A(11,7,12)            107.8582         estimate D2E/DX2                !
 ! D1    D(4,1,2,3)           -178.6856         estimate D2E/DX2                !
 ! D2    D(5,1,2,3)             59.7355         estimate D2E/DX2                !
 ! D3    D(6,1,2,3)            -57.2367         estimate D2E/DX2                !
 ! D4    D(2,1,4,7)             64.3159         estimate D2E/DX2                !
 ! D5    D(2,1,4,8)           -173.7351         estimate D2E/DX2                !
 ! D6    D(2,1,4,9)            -58.8411         estimate D2E/DX2                !
 ! D7    D(5,1,4,7)           -176.2157         estimate D2E/DX2                !
 ! D8    D(5,1,4,8)            -54.2668         estimate D2E/DX2                !
 ! D9    D(5,1,4,9)             60.6273         estimate D2E/DX2                !
 ! D10   D(6,1,4,7)            -55.135          estimate D2E/DX2                !
 ! D11   D(6,1,4,8)             66.8139         estimate D2E/DX2                !
 ! D12   D(6,1,4,9)           -178.292          estimate D2E/DX2                !
 ! D13   D(1,2,3,13)            -0.1202         estimate D2E/DX2                !
 ! D14   D(1,4,7,10)           179.7786         estimate D2E/DX2                !
 ! D15   D(1,4,7,11)           -60.0429         estimate D2E/DX2                !
 ! D16   D(1,4,7,12)            59.9371         estimate D2E/DX2                !
 ! D17   D(8,4,7,10)            59.4493         estimate D2E/DX2                !
 ! D18   D(8,4,7,11)           179.6278         estimate D2E/DX2                !
 ! D19   D(8,4,7,12)           -60.3922         estimate D2E/DX2                !
 ! D20   D(9,4,7,10)           -57.8753         estimate D2E/DX2                !
 ! D21   D(9,4,7,11)            62.3032         estimate D2E/DX2                !
 ! D22   D(9,4,7,12)          -177.7168         estimate D2E/DX2                !
 --------------------------------------------------------------------------------
 Trust Radius=3.00D-01 FncErr=1.00D-07 GrdErr=1.00D-06 EigMax=2.50D+02 EigMin=1.00D-04
 Number of steps in this run=     64 maximum allowed number of steps=    100.
 GradGradGradGradGradGradGradGradGradGradGradGradGradGradGradGradGradGrad

                          Input orientation:                          
 ---------------------------------------------------------------------
 Center     Atomic      Atomic             Coordinates (Angstroms)
 Number     Number       Type             X           Y           Z
 ---------------------------------------------------------------------
      1          6           0       -0.278155    0.708010    0.010374
      2          8           0        0.383192   -0.507172   -0.403406
      3          7           0        1.747307   -0.584689   -0.143936
      4          6           0       -1.752467    0.563042   -0.337517
      5          1           0        0.186253    1.556010   -0.504595
      6          1           0       -0.121612    0.848107    1.086399
      7          6           0       -2.456287   -0.556328    0.434792
      8          1           0       -2.232678    1.526555   -0.127958
      9          1           0       -1.845453    0.395800   -1.416631
     10          1           0       -3.511670   -0.619624    0.155032
     11          1           0       -1.991808   -1.524497    0.230155
     12          1           0       -2.406534   -0.381467    1.515232
     13          8           0        2.204633    0.369365    0.389576
 ---------------------------------------------------------------------
                    Distance matrix (angstroms):
                    1          2          3          4          5
     1  C    0.000000
     2  O    1.444043   0.000000
     3  N    2.407775   1.390735   0.000000
     4  C    1.521723   2.389715   3.688249   0.000000
     5  H    1.095432   2.075029   2.673866   2.184613   0.000000
     6  H    1.096341   2.076325   2.656969   2.183687   1.768380
     7  C    2.554005   2.961019   4.243340   1.531278   3.511045
     8  H    2.123514   3.324860   4.505318   1.096757   2.448255
     9  H    2.142485   2.609376   3.935611   1.095949   2.511121
    10  H    3.498451   3.936299   5.267584   2.176258   4.340867
    11  H    2.822941   2.660258   3.873521   2.176547   3.843609
    12  H    2.825165   3.388148   4.477559   2.180041   3.815241
    13  O    2.534307   2.171356   1.184906   4.028004   2.506297
                    6          7          8          9         10
     6  H    0.000000
     7  C    2.801381   0.000000
     8  H    2.528152   2.169122   0.000000
     9  H    3.072681   2.169662   1.757620   0.000000
    10  H    3.809747   1.093666   2.514356   2.505492   0.000000
    11  H    3.140070   1.093146   3.081425   2.533942   1.770429
    12  H    2.629946   1.095629   2.524054   3.084603   1.768669
    13  O    2.475111   4.752171   4.614830   4.434668   5.805965
                   11         12         13
    11  H    0.000000
    12  H    1.769163   0.000000
    13  O    4.606761   4.805592   0.000000
 Stoichiometry    C3H7NO2
 Framework group  C1[X(C3H7NO2)]
 Deg. of freedom    33
 Full point group                 C1      NOp   1
 Largest Abelian subgroup         C1      NOp   1
 Largest concise Abelian subgroup C1      NOp   1
                         Standard orientation:                         
 ---------------------------------------------------------------------
 Center     Atomic      Atomic             Coordinates (Angstroms)
 Number     Number       Type             X           Y           Z
 ---------------------------------------------------------------------
      1          6           0       -0.148414    0.688799    0.053003
      2          8           0        0.504104   -0.497397   -0.449412
      3          7           0        1.865614   -0.608421   -0.188437
      4          6           0       -1.621635    0.585947   -0.313986
      5          1           0        0.327577    1.569314   -0.392080
      6          1           0        0.002114    0.743827    1.137565
      7          6           0       -2.341369   -0.582575    0.365243
      8          1           0       -2.094039    1.535184   -0.033524
      9          1           0       -1.708848    0.503456   -1.403340
     10          1           0       -3.395375   -0.613474    0.075032
     11          1           0       -1.884774   -1.536676    0.089233
     12          1           0       -2.297322   -0.492157    1.456245
     13          8           0        2.328381    0.296953    0.419959
 ---------------------------------------------------------------------
 Rotational constants (GHZ):          10.5290376           1.8138076           1.7018467
 General basis read from cards:  (5D, 7F)
 There are   315 symmetry adapted cartesian basis functions of A   symmetry.
 There are   278 symmetry adapted basis functions of A   symmetry.
   278 basis functions,   432 primitive gaussians,   315 cartesian basis functions
    24 alpha electrons       24 beta electrons
       nuclear repulsion energy       242.0885080319 Hartrees.
 NAtoms=   13 NActive=   13 NUniq=   13 SFac= 1.00D+00 NAtFMM=   60 NAOKFM=F Big=F
 Integral buffers will be    131072 words long.
 Raffenetti 2 integral format.
 Two-electron integral symmetry is turned on.
 One-electron integrals computed using PRISM.
 NBasis=   278 RedAO= T EigKep=  3.36D-04  NBF=   278
 NBsUse=   278 1.00D-06 EigRej= -1.00D+00 NBFU=   278
 ExpMin= 7.42D-02 ExpMax= 1.36D+04 ExpMxC= 4.64D+02 IAcc=3 IRadAn=         5 AccDes= 0.00D+00
 Harris functional with IExCor=  402 and IRadAn=       5 diagonalized for initial guess.
 HarFok:  IExCor=  402 AccDes= 0.00D+00 IRadAn=         5 IDoV= 1 UseB2=F ITyADJ=14
 ICtDFT=  3500011 ScaDFX=  1.000000  1.000000  1.000000  1.000000
 FoFCou: FMM=F IPFlag=           0 FMFlag=      100000 FMFlg1=           0
         NFxFlg=           0 DoJE=T BraDBF=F KetDBF=T FulRan=T
         wScrn=  0.000000 ICntrl=       500 IOpCl=  0 I1Cent=   200000004 NGrid=           0
         NMat0=    1 NMatS0=      1 NMatT0=    0 NMatD0=    1 NMtDS0=    0 NMtDT0=    0
 Petite list used in FoFCou.
 Requested convergence on RMS density matrix=1.00D-08 within 128 cycles.
 Requested convergence on MAX density matrix=1.00D-06.
 Requested convergence on             energy=1.00D-06.
 No special actions if energy rises.
 Integral accuracy reduced to 1.0D-05 until final iterations.
 Initial convergence to 1.0D-05 achieved.  Increase integral accuracy.
 SCF Done:  E(RB3LYP) =  -323.776017557     A.U. after   13 cycles
            NFock= 13  Conv=0.72D-08     -V/T= 2.0037

 **********************************************************************

            Population analysis using the SCF Density.

 **********************************************************************

 Orbital symmetries:
       Occupied  (A) (A) (A) (A) (A) (A) (A) (A) (A) (A) (A) (A)
                 (A) (A) (A) (A) (A) (A) (A) (A) (A) (A) (A) (A)
       Virtual   (A) (A) (A) (A) (A) (A) (A) (A) (A) (A) (A) (A)
                 (A) (A) (A) (A) (A) (A) (A) (A) (A) (A) (A) (A)
                 (A) (A) (A) (A) (A) (A) (A) (A) (A) (A) (A) (A)
                 (A) (A) (A) (A) (A) (A) (A) (A) (A) (A) (A) (A)
                 (A) (A) (A) (A) (A) (A) (A) (A) (A) (A) (A) (A)
                 (A) (A) (A) (A) (A) (A) (A) (A) (A) (A) (A) (A)
                 (A) (A) (A) (A) (A) (A) (A) (A) (A) (A) (A) (A)
                 (A) (A) (A) (A) (A) (A) (A) (A) (A) (A) (A) (A)
                 (A) (A) (A) (A) (A) (A) (A) (A) (A) (A) (A) (A)
                 (A) (A) (A) (A) (A) (A) (A) (A) (A) (A) (A) (A)
                 (A) (A) (A) (A) (A) (A) (A) (A) (A) (A) (A) (A)
                 (A) (A) (A) (A) (A) (A) (A) (A) (A) (A) (A) (A)
                 (A) (A) (A) (A) (A) (A) (A) (A) (A) (A) (A) (A)
                 (A) (A) (A) (A) (A) (A) (A) (A) (A) (A) (A) (A)
                 (A) (A) (A) (A) (A) (A) (A) (A) (A) (A) (A) (A)
                 (A) (A) (A) (A) (A) (A) (A) (A) (A) (A) (A) (A)
                 (A) (A) (A) (A) (A) (A) (A) (A) (A) (A) (A) (A)
                 (A) (A) (A) (A) (A) (A) (A) (A) (A) (A) (A) (A)
                 (A) (A) (A) (A) (A) (A) (A) (A) (A) (A) (A) (A)
                 (A) (A) (A) (A) (A) (A) (A) (A) (A) (A) (A) (A)
                 (A) (A) (A) (A) (A) (A) (A) (A) (A) (A) (A) (A)
                 (A) (A)
 The electronic state is 1-A.
 Alpha  occ. eigenvalues --  -19.19980 -19.19935 -14.49562 -10.24133 -10.18964
 Alpha  occ. eigenvalues --  -10.17144  -1.22710  -1.06424  -0.81377  -0.73300
 Alpha  occ. eigenvalues --   -0.65569  -0.59794  -0.56393  -0.52676  -0.50419
 Alpha  occ. eigenvalues --   -0.46874  -0.44945  -0.42823  -0.39289  -0.37328
 Alpha  occ. eigenvalues --   -0.36551  -0.35580  -0.33078  -0.28655
 Alpha virt. eigenvalues --   -0.08427   0.00919   0.03465   0.04064   0.05781
 Alpha virt. eigenvalues --    0.07471   0.08174   0.08948   0.10089   0.13049
 Alpha virt. eigenvalues --    0.13537   0.16162   0.16851   0.18557   0.19145
 Alpha virt. eigenvalues --    0.21461   0.22171   0.24457   0.26956   0.27850
 Alpha virt. eigenvalues --    0.28885   0.30915   0.31542   0.31961   0.32882
 Alpha virt. eigenvalues --    0.33872   0.34482   0.35294   0.36373   0.36548
 Alpha virt. eigenvalues --    0.36937   0.38347   0.42100   0.43343   0.45057
 Alpha virt. eigenvalues --    0.45393   0.50388   0.51675   0.53318   0.55097
 Alpha virt. eigenvalues --    0.58984   0.63963   0.65337   0.71906   0.73534
 Alpha virt. eigenvalues --    0.78570   0.80219   0.84125   0.85674   0.87741
 Alpha virt. eigenvalues --    0.94006   0.94166   0.95954   0.98036   1.00728
 Alpha virt. eigenvalues --    1.01615   1.02476   1.05098   1.05668   1.07873
 Alpha virt. eigenvalues --    1.10003   1.10844   1.12721   1.13673   1.15783
 Alpha virt. eigenvalues --    1.17774   1.19741   1.22942   1.25561   1.27053
 Alpha virt. eigenvalues --    1.28607   1.31368   1.35834   1.36476   1.39427
 Alpha virt. eigenvalues --    1.43020   1.46331   1.47953   1.48950   1.54372
 Alpha virt. eigenvalues --    1.55764   1.57611   1.62838   1.67606   1.70252
 Alpha virt. eigenvalues --    1.72115   1.73825   1.75361   1.76564   1.79053
 Alpha virt. eigenvalues --    1.81206   1.83096   1.85482   1.85865   1.89815
 Alpha virt. eigenvalues --    1.92746   1.94292   1.95791   1.97449   2.00491
 Alpha virt. eigenvalues --    2.04539   2.05387   2.09793   2.14934   2.16311
 Alpha virt. eigenvalues --    2.20522   2.26504   2.32875   2.33471   2.35454
 Alpha virt. eigenvalues --    2.40463   2.44908   2.46746   2.50565   2.55212
 Alpha virt. eigenvalues --    2.57926   2.64113   2.71474   2.73295   2.79761
 Alpha virt. eigenvalues --    3.02298   3.03031   3.08170   3.12688   3.14288
 Alpha virt. eigenvalues --    3.19648   3.26664   3.26823   3.28416   3.32582
 Alpha virt. eigenvalues --    3.33494   3.35696   3.37221   3.39928   3.41015
 Alpha virt. eigenvalues --    3.43692   3.47867   3.49804   3.52553   3.55190
 Alpha virt. eigenvalues --    3.56986   3.63162   3.68035   3.70670   3.74045
 Alpha virt. eigenvalues --    3.77155   3.78965   3.80887   3.82553   3.85640
 Alpha virt. eigenvalues --    3.87173   3.88186   3.90044   3.92110   3.93374
 Alpha virt. eigenvalues --    3.97231   3.98467   3.99877   4.00986   4.04796
 Alpha virt. eigenvalues --    4.08459   4.10375   4.15309   4.21244   4.23278
 Alpha virt. eigenvalues --    4.25947   4.28654   4.30490   4.32924   4.36670
 Alpha virt. eigenvalues --    4.38743   4.40833   4.42620   4.44092   4.46016
 Alpha virt. eigenvalues --    4.48446   4.51847   4.52682   4.53873   4.55701
 Alpha virt. eigenvalues --    4.56275   4.59009   4.62516   4.62733   4.64002
 Alpha virt. eigenvalues --    4.64850   4.66031   4.69766   4.71014   4.73681
 Alpha virt. eigenvalues --    4.77191   4.79402   4.84394   4.86416   4.88421
 Alpha virt. eigenvalues --    4.93834   4.95513   5.00074   5.01929   5.06072
 Alpha virt. eigenvalues --    5.08287   5.08642   5.11369   5.14671   5.18664
 Alpha virt. eigenvalues --    5.26708   5.27434   5.27910   5.32696   5.33329
 Alpha virt. eigenvalues --    5.37583   5.41893   5.42613   5.47773   5.49489
 Alpha virt. eigenvalues --    5.52241   5.56285   5.58422   5.61208   5.65435
 Alpha virt. eigenvalues --    5.70649   5.71959   5.76455   5.77154   5.79988
 Alpha virt. eigenvalues --    5.81231   5.82487   5.85423   5.88465   5.91375
 Alpha virt. eigenvalues --    5.92548   5.96014   5.99380   6.05333   6.06536
 Alpha virt. eigenvalues --    6.07987   6.10669   6.12815   6.15969   6.18715
 Alpha virt. eigenvalues --    6.23548   6.25817   6.28023   6.34626   6.43771
 Alpha virt. eigenvalues --    6.50589   6.53025   6.70660   6.78758   6.94343
 Alpha virt. eigenvalues --    6.95758   7.11768   7.62022   9.51677
          Condensed to atoms (all electrons):
               1          2          3          4          5          6
     1  C    4.646125   0.182038  -0.011989   0.305138   0.439715   0.435614
     2  O    0.182038   8.262330   0.021504  -0.047055  -0.037724  -0.041564
     3  N   -0.011989   0.021504   6.515855   0.004642  -0.006155  -0.007806
     4  C    0.305138  -0.047055   0.004642   4.719942  -0.036658  -0.029639
     5  H    0.439715  -0.037724  -0.006155  -0.036658   0.628665  -0.040579
     6  H    0.435614  -0.041564  -0.007806  -0.029639  -0.040579   0.641270
     7  C   -0.049294  -0.004325  -0.000958   0.317286   0.011373  -0.015485
     8  H   -0.040459   0.004281  -0.000214   0.431366  -0.002700  -0.003065
     9  H   -0.037643   0.001334  -0.000610   0.434728  -0.009728   0.010455
    10  H    0.012475  -0.000254   0.000057  -0.032947  -0.000326  -0.000097
    11  H   -0.011008   0.007108   0.000107  -0.036096   0.000290  -0.000911
    12  H   -0.005958  -0.000460  -0.000161  -0.033873   0.000016   0.004232
    13  O    0.010543  -0.100990   0.282193   0.003871   0.002935   0.002461
               7          8          9         10         11         12
     1  C   -0.049294  -0.040459  -0.037643   0.012475  -0.011008  -0.005958
     2  O   -0.004325   0.004281   0.001334  -0.000254   0.007108  -0.000460
     3  N   -0.000958  -0.000214  -0.000610   0.000057   0.000107  -0.000161
     4  C    0.317286   0.431366   0.434728  -0.032947  -0.036096  -0.033873
     5  H    0.011373  -0.002700  -0.009728  -0.000326   0.000290   0.000016
     6  H   -0.015485  -0.003065   0.010455  -0.000097  -0.000911   0.004232
     7  C    4.637956  -0.038453  -0.041548   0.421304   0.431654   0.416154
     8  H   -0.038453   0.658449  -0.028044  -0.005928   0.009469  -0.007343
     9  H   -0.041548  -0.028044   0.643134  -0.006748  -0.006210   0.009420
    10  H    0.421304  -0.005928  -0.006748   0.623022  -0.022500  -0.025167
    11  H    0.431654   0.009469  -0.006210  -0.022500   0.607721  -0.026942
    12  H    0.416154  -0.007343   0.009420  -0.025167  -0.026942   0.648895
    13  O   -0.000853   0.000487  -0.000125  -0.000006   0.000316  -0.000041
              13
     1  C    0.010543
     2  O   -0.100990
     3  N    0.282193
     4  C    0.003871
     5  H    0.002935
     6  H    0.002461
     7  C   -0.000853
     8  H    0.000487
     9  H   -0.000125
    10  H   -0.000006
    11  H    0.000316
    12  H   -0.000041
    13  O    8.050780
 Mulliken charges:
               1
     1  C    0.124703
     2  O   -0.246224
     3  N    0.203535
     4  C   -0.000705
     5  H    0.050875
     6  H    0.045112
     7  C   -0.084811
     8  H    0.022154
     9  H    0.031586
    10  H    0.037115
    11  H    0.047002
    12  H    0.021230
    13  O   -0.251571
 Sum of Mulliken charges =  -0.00000
 Mulliken charges with hydrogens summed into heavy atoms:
               1
     1  C    0.220690
     2  O   -0.246224
     3  N    0.203535
     4  C    0.053035
     7  C    0.020535
    13  O   -0.251571
 Electronic spatial extent (au):  <R**2>=            717.9524
 Charge=             -0.0000 electrons
 Dipole moment (field-independent basis, Debye):
    X=             -2.2129    Y=              1.2561    Z=              0.2094  Tot=              2.5532
 Quadrupole moment (field-independent basis, Debye-Ang):
   XX=            -40.1318   YY=            -37.0454   ZZ=            -36.3922
   XY=             -0.1752   XZ=             -0.5093   YZ=             -1.1464
 Traceless Quadrupole moment (field-independent basis, Debye-Ang):
   XX=             -2.2753   YY=              0.8111   ZZ=              1.4642
   XY=             -0.1752   XZ=             -0.5093   YZ=             -1.1464
 Octapole moment (field-independent basis, Debye-Ang**2):
  XXX=             -1.9159  YYY=              1.7959  ZZZ=              0.4786  XYY=              2.7567
  XXY=              0.1216  XXZ=             -3.6270  XZZ=              4.2423  YZZ=              0.5079
  YYZ=              0.2450  XYZ=             -2.3057
 Hexadecapole moment (field-independent basis, Debye-Ang**3):
 XXXX=           -740.3992 YYYY=           -133.5915 ZZZZ=            -79.3454 XXXY=             -1.9414
 XXXZ=             -0.5080 YYYX=              1.2961 YYYZ=              0.8123 ZZZX=              3.3769
 ZZZY=              1.0780 XXYY=           -145.8608 XXZZ=           -133.5239 YYZZ=            -37.3349
 XXYZ=             -2.1862 YYXZ=              1.6300 ZZXY=             -0.0280
 N-N= 2.420885080319D+02 E-N=-1.242105244377D+03  KE= 3.225916529215D+02
 Calling FoFJK, ICntrl=      2127 FMM=F ISym2X=0 I1Cent= 0 IOpClX= 0 NMat=1 NMatS=1 NMatT=0.
 ***** Axes restored to original set *****
 -------------------------------------------------------------------
 Center     Atomic                   Forces (Hartrees/Bohr)
 Number     Number              X              Y              Z
 -------------------------------------------------------------------
      1        6          -0.002128851    0.003172964    0.000978237
      2        8           0.001240894    0.000002432    0.000165514
      3        7           0.003102506    0.006049146    0.003273326
      4        6           0.000043993    0.000356716   -0.000492291
      5        1          -0.001474154   -0.002241706    0.000944536
      6        1          -0.000762537   -0.000619661   -0.002647956
      7        6          -0.000183171   -0.000304371    0.000383977
      8        1           0.001138174   -0.002170341   -0.000391870
      9        1           0.000101470    0.000445884    0.002521299
     10        1           0.002393748    0.000117278    0.000614586
     11        1          -0.001492688    0.002101020    0.000464111
     12        1          -0.000166333   -0.000333068   -0.002468220
     13        8          -0.001813049   -0.006576293   -0.003345250
 -------------------------------------------------------------------
 Cartesian Forces:  Max     0.006576293 RMS     0.002150909

 GradGradGradGradGradGradGradGradGradGradGradGradGradGradGradGradGradGrad
 Berny optimization.
 FormGI is forming the generalized inverse of G from B-inverse, IUseBI=4.
 Internal  Forces:  Max     0.007501035 RMS     0.001635545
 Search for a local minimum.
 Step number   1 out of a maximum of   64
 All quantities printed in internal units (Hartrees-Bohrs-Radians)
 Mixed Optimization -- RFO/linear search
 Second derivative matrix not updated -- first step.
 ITU=  0
     Eigenvalues ---    0.00352   0.00479   0.01109   0.01417   0.03490
     Eigenvalues ---    0.04837   0.05329   0.05512   0.05521   0.05608
     Eigenvalues ---    0.08518   0.11252   0.12322   0.13582   0.16000
     Eigenvalues ---    0.16000   0.16000   0.21917   0.21927   0.25000
     Eigenvalues ---    0.25000   0.29306   0.30201   0.34043   0.34090
     Eigenvalues ---    0.34134   0.34170   0.34192   0.34392   0.34452
     Eigenvalues ---    0.39036   0.47191   1.12789
 RFO step:  Lambda=-3.63292467D-04 EMin= 3.52196667D-03
 Linear search not attempted -- first point.
 Iteration  1 RMS(Cart)=  0.01413388 RMS(Int)=  0.00008375
 Iteration  2 RMS(Cart)=  0.00011966 RMS(Int)=  0.00000513
 Iteration  3 RMS(Cart)=  0.00000001 RMS(Int)=  0.00000513
 Variable       Old X    -DE/DX   Delta X   Delta X   Delta X     New X
                                 (Linear)    (Quad)   (Total)
    R1        2.72885   0.00157   0.00000   0.00403   0.00403   2.73287
    R2        2.87564  -0.00194   0.00000  -0.00642  -0.00642   2.86921
    R3        2.07007  -0.00280   0.00000  -0.00819  -0.00819   2.06187
    R4        2.07178  -0.00279   0.00000  -0.00817  -0.00817   2.06362
    R5        2.62811   0.00128   0.00000   0.00271   0.00271   2.63082
    R6        2.23915  -0.00750   0.00000  -0.00665  -0.00665   2.23250
    R7        2.89370  -0.00192   0.00000  -0.00653  -0.00653   2.88717
    R8        2.07257  -0.00248   0.00000  -0.00728  -0.00728   2.06529
    R9        2.07104  -0.00256   0.00000  -0.00749  -0.00749   2.06355
   R10        2.06673  -0.00247   0.00000  -0.00719  -0.00719   2.05954
   R11        2.06575  -0.00258   0.00000  -0.00749  -0.00749   2.05826
   R12        2.07044  -0.00249   0.00000  -0.00729  -0.00729   2.06314
    A1        1.87343   0.00121   0.00000   0.00538   0.00538   1.87882
    A2        1.89924  -0.00039   0.00000  -0.00227  -0.00227   1.89697
    A3        1.90009  -0.00023   0.00000   0.00085   0.00085   1.90094
    A4        1.95737  -0.00062   0.00000  -0.00463  -0.00463   1.95274
    A5        1.95508  -0.00050   0.00000  -0.00247  -0.00248   1.95260
    A6        1.87752   0.00051   0.00000   0.00317   0.00317   1.88069
    A7        2.02936   0.00413   0.00000   0.01651   0.01651   2.04587
    A8        2.00171   0.00270   0.00000   0.01080   0.01080   2.01251
    A9        1.98193   0.00102   0.00000   0.00517   0.00516   1.98709
   A10        1.87217  -0.00044   0.00000  -0.00418  -0.00417   1.86800
   A11        1.89847  -0.00018   0.00000   0.00217   0.00216   1.90063
   A12        1.92259  -0.00037   0.00000  -0.00392  -0.00391   1.91868
   A13        1.92416  -0.00024   0.00000   0.00130   0.00128   1.92545
   A14        1.85985   0.00015   0.00000  -0.00101  -0.00100   1.85885
   A15        1.93567  -0.00012   0.00000  -0.00152  -0.00152   1.93415
   A16        1.93662   0.00051   0.00000   0.00364   0.00364   1.94026
   A17        1.93888  -0.00009   0.00000  -0.00024  -0.00025   1.93863
   A18        1.88692  -0.00027   0.00000  -0.00223  -0.00223   1.88469
   A19        1.88106   0.00001   0.00000  -0.00083  -0.00083   1.88023
   A20        1.88248  -0.00006   0.00000   0.00108   0.00108   1.88356
    D1       -3.11865  -0.00013   0.00000  -0.00609  -0.00609  -3.12474
    D2        1.04258   0.00012   0.00000  -0.00239  -0.00239   1.04019
    D3       -0.99897  -0.00014   0.00000  -0.00539  -0.00539  -1.00435
    D4        1.12252   0.00028   0.00000   0.01738   0.01738   1.13991
    D5       -3.03225   0.00016   0.00000   0.01277   0.01277  -3.01948
    D6       -1.02697   0.00002   0.00000   0.01051   0.01050  -1.01647
    D7       -3.07555   0.00022   0.00000   0.01532   0.01532  -3.06022
    D8       -0.94713   0.00009   0.00000   0.01071   0.01071  -0.93643
    D9        1.05815  -0.00004   0.00000   0.00845   0.00844   1.06659
   D10       -0.96229   0.00007   0.00000   0.01434   0.01435  -0.94794
   D11        1.16612  -0.00005   0.00000   0.00973   0.00973   1.17585
   D12       -3.11178  -0.00019   0.00000   0.00747   0.00747  -3.10432
   D13       -0.00210   0.00008   0.00000   0.00534   0.00534   0.00324
   D14        3.13773  -0.00020   0.00000  -0.01409  -0.01409   3.12363
   D15       -1.04795  -0.00028   0.00000  -0.01550  -0.01550  -1.06345
   D16        1.04610  -0.00008   0.00000  -0.01187  -0.01187   1.03422
   D17        1.03759  -0.00007   0.00000  -0.00941  -0.00941   1.02817
   D18        3.13510  -0.00015   0.00000  -0.01082  -0.01082   3.12428
   D19       -1.05404   0.00005   0.00000  -0.00719  -0.00719  -1.06123
   D20       -1.01011   0.00011   0.00000  -0.00660  -0.00659  -1.01671
   D21        1.08740   0.00004   0.00000  -0.00801  -0.00800   1.07939
   D22       -3.10174   0.00024   0.00000  -0.00438  -0.00437  -3.10612
         Item               Value     Threshold  Converged?
 Maximum Force            0.007501     0.000450     NO 
 RMS     Force            0.001636     0.000300     NO 
 Maximum Displacement     0.054922     0.001800     NO 
 RMS     Displacement     0.014135     0.001200     NO 
 Predicted change in Energy=-1.823200D-04
 GradGradGradGradGradGradGradGradGradGradGradGradGradGradGradGradGradGrad

                          Input orientation:                          
 ---------------------------------------------------------------------
 Center     Atomic      Atomic             Coordinates (Angstroms)
 Number     Number       Type             X           Y           Z
 ---------------------------------------------------------------------
      1          6           0       -0.283276    0.708634    0.014620
      2          8           0        0.395812   -0.497505   -0.404294
      3          7           0        1.762918   -0.578230   -0.154009
      4          6           0       -1.752107    0.556159   -0.338352
      5          1           0        0.170963    1.560280   -0.494161
      6          1           0       -0.134672    0.843962    1.087984
      7          6           0       -2.461372   -0.554132    0.435235
      8          1           0       -2.231589    1.516950   -0.134825
      9          1           0       -1.841744    0.386262   -1.413309
     10          1           0       -3.513884   -0.608244    0.157580
     11          1           0       -2.009937   -1.524540    0.233153
     12          1           0       -2.410088   -0.377334    1.511373
     13          8           0        2.233697    0.360850    0.386521
 ---------------------------------------------------------------------
                    Distance matrix (angstroms):
                    1          2          3          4          5
     1  C    0.000000
     2  O    1.446174   0.000000
     3  N    2.423089   1.392170   0.000000
     4  C    1.518323   2.393348   3.698137   0.000000
     5  H    1.091097   2.071982   2.687609   2.175025   0.000000
     6  H    1.092019   2.075534   2.676943   2.175629   1.763436
     7  C    2.552567   2.978509   4.265257   1.527822   3.501957
     8  H    2.114623   3.321728   4.510679   1.092906   2.429662
     9  H    2.138160   2.608795   3.938231   1.091985   2.504823
    10  H    3.491624   3.951417   5.286079   2.169249   4.324970
    11  H    2.831287   2.692354   3.908943   2.173110   3.847262
    12  H    2.818320   3.399603   4.497537   2.173898   3.799782
    13  O    2.567959   2.177150   1.181387   4.055887   2.543443
                    6          7          8          9         10
     6  H    0.000000
     7  C    2.791824   0.000000
     8  H    2.518974   2.160358   0.000000
     9  H    3.062686   2.164577   1.750701   0.000000
    10  H    3.793893   1.089863   2.499246   2.500558   0.000000
    11  H    3.139611   1.089185   3.071677   2.527903   1.762716
    12  H    2.616934   1.091769   2.515978   3.075688   1.761942
    13  O    2.516867   4.783642   4.641890   4.455249   5.833202
                   11         12         13
    11  H    0.000000
    12  H    1.763533   0.000000
    13  O    4.646143   4.834764   0.000000
 Stoichiometry    C3H7NO2
 Framework group  C1[X(C3H7NO2)]
 Deg. of freedom    33
 Full point group                 C1      NOp   1
 Largest Abelian subgroup         C1      NOp   1
 Largest concise Abelian subgroup C1      NOp   1
                         Standard orientation:                         
 ---------------------------------------------------------------------
 Center     Atomic      Atomic             Coordinates (Angstroms)
 Number     Number       Type             X           Y           Z
 ---------------------------------------------------------------------
      1          6           0       -0.160957    0.688516    0.057991
      2          8           0        0.510623   -0.488437   -0.447165
      3          7           0        1.874863   -0.601239   -0.193665
      4          6           0       -1.628180    0.577664   -0.316537
      5          1           0        0.305065    1.572248   -0.380568
      6          1           0       -0.019884    0.739746    1.139647
      7          6           0       -2.353696   -0.581786    0.364304
      8          1           0       -2.100626    1.524592   -0.043468
      9          1           0       -1.710589    0.491525   -1.401995
     10          1           0       -3.404358   -0.604342    0.075508
     11          1           0       -1.909393   -1.538144    0.091730
     12          1           0       -2.309584   -0.488488    1.451185
     13          8           0        2.349668    0.289083    0.420797
 ---------------------------------------------------------------------
 Rotational constants (GHZ):          10.6433741           1.7920020           1.6855656
 Basis read from rwf:  (5D, 7F)
 There are   315 symmetry adapted cartesian basis functions of A   symmetry.
 There are   278 symmetry adapted basis functions of A   symmetry.
   278 basis functions,   432 primitive gaussians,   315 cartesian basis functions
    24 alpha electrons       24 beta electrons
       nuclear repulsion energy       241.7600378987 Hartrees.
 NAtoms=   13 NActive=   13 NUniq=   13 SFac= 1.00D+00 NAtFMM=   60 NAOKFM=F Big=F
 Integral buffers will be    131072 words long.
 Raffenetti 2 integral format.
 Two-electron integral symmetry is turned on.
 One-electron integrals computed using PRISM.
 NBasis=   278 RedAO= T EigKep=  3.34D-04  NBF=   278
 NBsUse=   278 1.00D-06 EigRej= -1.00D+00 NBFU=   278
 Initial guess from the checkpoint file:  "/wrk/irikura/Gau-13483.chk"
 B after Tr=     0.000000   -0.000000   -0.000000
         Rot=    0.999999   -0.001089    0.000110   -0.000357 Ang=  -0.13 deg.
 ExpMin= 7.42D-02 ExpMax= 1.36D+04 ExpMxC= 4.64D+02 IAcc=3 IRadAn=         5 AccDes= 0.00D+00
 Harris functional with IExCor=  402 and IRadAn=       5 diagonalized for initial guess.
 HarFok:  IExCor=  402 AccDes= 0.00D+00 IRadAn=         5 IDoV= 1 UseB2=F ITyADJ=14
 ICtDFT=  3500011 ScaDFX=  1.000000  1.000000  1.000000  1.000000
 FoFCou: FMM=F IPFlag=           0 FMFlag=      100000 FMFlg1=           0
         NFxFlg=           0 DoJE=T BraDBF=F KetDBF=T FulRan=T
         wScrn=  0.000000 ICntrl=       500 IOpCl=  0 I1Cent=   200000004 NGrid=           0
         NMat0=    1 NMatS0=      1 NMatT0=    0 NMatD0=    1 NMtDS0=    0 NMtDT0=    0
 Petite list used in FoFCou.
 Requested convergence on RMS density matrix=1.00D-08 within 128 cycles.
 Requested convergence on MAX density matrix=1.00D-06.
 Requested convergence on             energy=1.00D-06.
 No special actions if energy rises.
 Integral accuracy reduced to 1.0D-05 until final iterations.
 Initial convergence to 1.0D-05 achieved.  Increase integral accuracy.
 SCF Done:  E(RB3LYP) =  -323.776173048     A.U. after   12 cycles
            NFock= 12  Conv=0.17D-08     -V/T= 2.0035
 Calling FoFJK, ICntrl=      2127 FMM=F ISym2X=0 I1Cent= 0 IOpClX= 0 NMat=1 NMatS=1 NMatT=0.
 ***** Axes restored to original set *****
 -------------------------------------------------------------------
 Center     Atomic                   Forces (Hartrees/Bohr)
 Number     Number              X              Y              Z
 -------------------------------------------------------------------
      1        6           0.000188449    0.001119272    0.000297675
      2        8          -0.000137518   -0.000127084   -0.000023368
      3        7           0.002371589    0.001440488    0.001231018
      4        6           0.000275067   -0.000261864    0.000214016
      5        1           0.000022925   -0.000068244   -0.000173253
      6        1          -0.000001670   -0.000303328    0.000046154
      7        6           0.000116571    0.000136981   -0.000070881
      8        1           0.000021000    0.000140992   -0.000021833
      9        1           0.000031575   -0.000002643    0.000042812
     10        1          -0.000052991   -0.000025609   -0.000018129
     11        1          -0.000072882   -0.000114246    0.000016229
     12        1          -0.000003515   -0.000028641   -0.000019793
     13        8          -0.002758599   -0.001906073   -0.001520647
 -------------------------------------------------------------------
 Cartesian Forces:  Max     0.002758599 RMS     0.000793996

 GradGradGradGradGradGradGradGradGradGradGradGradGradGradGradGradGradGrad
 Berny optimization.
 Using GEDIIS/GDIIS optimizer.
 FormGI is forming the generalized inverse of G from B-inverse, IUseBI=4.
 Internal  Forces:  Max     0.003597483 RMS     0.000737071
 Search for a local minimum.
 Step number   2 out of a maximum of   64
 All quantities printed in internal units (Hartrees-Bohrs-Radians)
 Mixed Optimization -- En-DIIS/RFO-DIIS
 Update second derivatives using D2CorX and points    1    2
 DE= -1.55D-04 DEPred=-1.82D-04 R= 8.53D-01
 TightC=F SS=  1.41D+00  RLast= 5.94D-02 DXNew= 5.0454D-01 1.7807D-01
 Trust test= 8.53D-01 RLast= 5.94D-02 DXMaxT set to 3.00D-01
 ITU=  1  0
 Use linear search instead of GDIIS.
     Eigenvalues ---    0.00351   0.00477   0.01108   0.01420   0.03448
     Eigenvalues ---    0.04827   0.05317   0.05473   0.05530   0.05635
     Eigenvalues ---    0.08568   0.11230   0.12356   0.13600   0.15900
     Eigenvalues ---    0.16000   0.16000   0.20933   0.21936   0.24175
     Eigenvalues ---    0.27455   0.29670   0.30893   0.34050   0.34108
     Eigenvalues ---    0.34151   0.34180   0.34336   0.34428   0.38828
     Eigenvalues ---    0.41325   0.47985   1.02603
 RFO step:  Lambda=-6.00633550D-05 EMin= 3.50519725D-03
 Quartic linear search produced a step of -0.12214.
 Iteration  1 RMS(Cart)=  0.00625198 RMS(Int)=  0.00004031
 Iteration  2 RMS(Cart)=  0.00003657 RMS(Int)=  0.00000049
 Iteration  3 RMS(Cart)=  0.00000000 RMS(Int)=  0.00000049
 Variable       Old X    -DE/DX   Delta X   Delta X   Delta X     New X
                                 (Linear)    (Quad)   (Total)
    R1        2.73287   0.00034  -0.00049   0.00192   0.00143   2.73430
    R2        2.86921  -0.00032   0.00078  -0.00278  -0.00199   2.86722
    R3        2.06187   0.00004   0.00100  -0.00226  -0.00126   2.06062
    R4        2.06362   0.00001   0.00100  -0.00232  -0.00133   2.06229
    R5        2.63082  -0.00041  -0.00033   0.00003  -0.00031   2.63051
    R6        2.23250  -0.00331   0.00081  -0.00449  -0.00368   2.22882
    R7        2.88717  -0.00002   0.00080  -0.00193  -0.00113   2.88604
    R8        2.06529   0.00011   0.00089  -0.00180  -0.00091   2.06438
    R9        2.06355  -0.00004   0.00091  -0.00226  -0.00135   2.06220
   R10        2.05954   0.00006   0.00088  -0.00192  -0.00104   2.05850
   R11        2.05826   0.00007   0.00091  -0.00197  -0.00106   2.05720
   R12        2.06314  -0.00002   0.00089  -0.00216  -0.00127   2.06188
    A1        1.87882   0.00000  -0.00066   0.00107   0.00041   1.87923
    A2        1.89697  -0.00002   0.00028  -0.00096  -0.00068   1.89629
    A3        1.90094  -0.00014  -0.00010  -0.00155  -0.00166   1.89928
    A4        1.95274  -0.00000   0.00057  -0.00089  -0.00033   1.95241
    A5        1.95260   0.00001   0.00030  -0.00066  -0.00035   1.95225
    A6        1.88069   0.00014  -0.00039   0.00289   0.00251   1.88319
    A7        2.04587  -0.00219  -0.00202  -0.00295  -0.00497   2.04090
    A8        2.01251  -0.00360  -0.00132  -0.00953  -0.01085   2.00166
    A9        1.98709   0.00023  -0.00063   0.00248   0.00185   1.98893
   A10        1.86800  -0.00013   0.00051  -0.00185  -0.00135   1.86665
   A11        1.90063  -0.00007  -0.00026   0.00016  -0.00010   1.90053
   A12        1.91868   0.00001   0.00048  -0.00060  -0.00012   1.91856
   A13        1.92545  -0.00008  -0.00016   0.00006  -0.00009   1.92535
   A14        1.85885   0.00003   0.00012  -0.00048  -0.00036   1.85849
   A15        1.93415  -0.00002   0.00019  -0.00064  -0.00045   1.93370
   A16        1.94026   0.00015  -0.00044   0.00189   0.00145   1.94170
   A17        1.93863   0.00001   0.00003   0.00006   0.00009   1.93872
   A18        1.88469  -0.00008   0.00027  -0.00120  -0.00093   1.88376
   A19        1.88023  -0.00001   0.00010  -0.00037  -0.00027   1.87996
   A20        1.88356  -0.00006  -0.00013   0.00018   0.00005   1.88361
    D1       -3.12474   0.00000   0.00074  -0.00227  -0.00153  -3.12627
    D2        1.04019   0.00002   0.00029  -0.00127  -0.00098   1.03921
    D3       -1.00435  -0.00006   0.00066  -0.00333  -0.00267  -1.00703
    D4        1.13991  -0.00006  -0.00212   0.00344   0.00132   1.14123
    D5       -3.01948   0.00000  -0.00156   0.00294   0.00138  -3.01810
    D6       -1.01647  -0.00007  -0.00128   0.00150   0.00021  -1.01625
    D7       -3.06022  -0.00009  -0.00187   0.00242   0.00055  -3.05967
    D8       -0.93643  -0.00002  -0.00131   0.00192   0.00061  -0.93582
    D9        1.06659  -0.00009  -0.00103   0.00047  -0.00056   1.06603
   D10       -0.94794   0.00009  -0.00175   0.00505   0.00330  -0.94464
   D11        1.17585   0.00016  -0.00119   0.00455   0.00336   1.17922
   D12       -3.10432   0.00009  -0.00091   0.00311   0.00220  -3.10212
   D13        0.00324  -0.00008  -0.00065  -0.00334  -0.00400  -0.00075
   D14        3.12363  -0.00001   0.00172  -0.00551  -0.00378   3.11985
   D15       -1.06345  -0.00003   0.00189  -0.00619  -0.00430  -1.06775
   D16        1.03422   0.00000   0.00145  -0.00465  -0.00320   1.03102
   D17        1.02817  -0.00001   0.00115  -0.00436  -0.00321   1.02496
   D18        3.12428  -0.00002   0.00132  -0.00505  -0.00373   3.12055
   D19       -1.06123   0.00001   0.00088  -0.00351  -0.00263  -1.06387
   D20       -1.01671  -0.00000   0.00081  -0.00345  -0.00265  -1.01935
   D21        1.07939  -0.00002   0.00098  -0.00413  -0.00316   1.07624
   D22       -3.10612   0.00001   0.00053  -0.00260  -0.00206  -3.10818
         Item               Value     Threshold  Converged?
 Maximum Force            0.003597     0.000450     NO 
 RMS     Force            0.000737     0.000300     NO 
 Maximum Displacement     0.027165     0.001800     NO 
 RMS     Displacement     0.006245     0.001200     NO 
 Predicted change in Energy=-3.322743D-05
 GradGradGradGradGradGradGradGradGradGradGradGradGradGradGradGradGradGrad

                          Input orientation:                          
 ---------------------------------------------------------------------
 Center     Atomic      Atomic             Coordinates (Angstroms)
 Number     Number       Type             X           Y           Z
 ---------------------------------------------------------------------
      1          6           0       -0.281363    0.705777    0.015196
      2          8           0        0.397771   -0.500998   -0.404415
      3          7           0        1.764843   -0.575171   -0.152821
      4          6           0       -1.749289    0.554577   -0.337551
      5          1           0        0.173024    1.556488   -0.493592
      6          1           0       -0.132949    0.838331    1.088218
      7          6           0       -2.461829   -0.553418    0.435137
      8          1           0       -2.226337    1.516126   -0.134486
      9          1           0       -1.838903    0.385216   -1.411869
     10          1           0       -3.514364   -0.602289    0.158758
     11          1           0       -2.016376   -1.525668    0.231654
     12          1           0       -2.408830   -0.378299    1.510786
     13          8           0        2.219322    0.372439    0.382501
 ---------------------------------------------------------------------
                    Distance matrix (angstroms):
                    1          2          3          4          5
     1  C    0.000000
     2  O    1.446929   0.000000
     3  N    2.419921   1.392008   0.000000
     4  C    1.517267   2.393445   3.695887   0.000000
     5  H    1.090432   2.071645   2.682160   2.173353   0.000000
     6  H    1.091317   2.074468   2.672037   2.173911   1.763942
     7  C    2.552716   2.980756   4.267426   1.527224   3.500956
     8  H    2.112344   3.320782   4.505927   1.092422   2.426422
     9  H    2.136634   2.608266   3.936309   1.091271   2.502591
    10  H    3.490551   3.953761   5.288463   2.167984   4.322350
    11  H    2.834867   2.698637   3.917765   2.173189   3.849564
    12  H    2.817469   3.400009   4.497321   2.172925   3.798277
    13  O    2.549402   2.167988   1.179442   4.037514   2.521279
                    6          7          8          9         10
     6  H    0.000000
     7  C    2.790549   0.000000
     8  H    2.517277   2.159384   0.000000
     9  H    3.060396   2.163447   1.749505   0.000000
    10  H    3.791207   1.089313   2.496535   2.499841   0.000000
    11  H    3.141574   1.088624   3.070936   2.526686   1.761224
    12  H    2.615031   1.091099   2.515764   3.074034   1.760783
    13  O    2.499654   4.772122   4.619435   4.437242   5.820250
                   11         12         13
    11  H    0.000000
    12  H    1.762570   0.000000
    13  O    4.643996   4.822491   0.000000
 Stoichiometry    C3H7NO2
 Framework group  C1[X(C3H7NO2)]
 Deg. of freedom    33
 Full point group                 C1      NOp   1
 Largest Abelian subgroup         C1      NOp   1
 Largest concise Abelian subgroup C1      NOp   1
                         Standard orientation:                         
 ---------------------------------------------------------------------
 Center     Atomic      Atomic             Coordinates (Angstroms)
 Number     Number       Type             X           Y           Z
 ---------------------------------------------------------------------
      1          6           0       -0.156732    0.684935    0.055568
      2          8           0        0.513123   -0.495982   -0.444764
      3          7           0        1.876956   -0.603820   -0.187825
      4          6           0       -1.622921    0.576485   -0.319436
      5          1           0        0.311458    1.564998   -0.386392
      6          1           0       -0.016710    0.737735    1.136576
      7          6           0       -2.354432   -0.576325    0.364913
      8          1           0       -2.091382    1.526202   -0.051168
      9          1           0       -1.704535    0.486398   -1.403915
     10          1           0       -3.404864   -0.593005    0.076956
     11          1           0       -1.917675   -1.536322    0.095191
     12          1           0       -2.309379   -0.480172    1.450834
     13          8           0        2.336740    0.297275    0.418567
 ---------------------------------------------------------------------
 Rotational constants (GHZ):          10.6508074           1.7989164           1.6910953
 Basis read from rwf:  (5D, 7F)
 There are   315 symmetry adapted cartesian basis functions of A   symmetry.
 There are   278 symmetry adapted basis functions of A   symmetry.
   278 basis functions,   432 primitive gaussians,   315 cartesian basis functions
    24 alpha electrons       24 beta electrons
       nuclear repulsion energy       242.0554018018 Hartrees.
 NAtoms=   13 NActive=   13 NUniq=   13 SFac= 1.00D+00 NAtFMM=   60 NAOKFM=F Big=F
 Integral buffers will be    131072 words long.
 Raffenetti 2 integral format.
 Two-electron integral symmetry is turned on.
 One-electron integrals computed using PRISM.
 NBasis=   278 RedAO= T EigKep=  3.31D-04  NBF=   278
 NBsUse=   278 1.00D-06 EigRej= -1.00D+00 NBFU=   278
 Initial guess from the checkpoint file:  "/wrk/irikura/Gau-13483.chk"
 B after Tr=    -0.000000    0.000000    0.000000
         Rot=    0.999995    0.002978    0.000466    0.000187 Ang=   0.35 deg.
 ExpMin= 7.42D-02 ExpMax= 1.36D+04 ExpMxC= 4.64D+02 IAcc=3 IRadAn=         5 AccDes= 0.00D+00
 Harris functional with IExCor=  402 and IRadAn=       5 diagonalized for initial guess.
 HarFok:  IExCor=  402 AccDes= 0.00D+00 IRadAn=         5 IDoV= 1 UseB2=F ITyADJ=14
 ICtDFT=  3500011 ScaDFX=  1.000000  1.000000  1.000000  1.000000
 FoFCou: FMM=F IPFlag=           0 FMFlag=      100000 FMFlg1=           0
         NFxFlg=           0 DoJE=T BraDBF=F KetDBF=T FulRan=T
         wScrn=  0.000000 ICntrl=       500 IOpCl=  0 I1Cent=   200000004 NGrid=           0
         NMat0=    1 NMatS0=      1 NMatT0=    0 NMatD0=    1 NMtDS0=    0 NMtDT0=    0
 Petite list used in FoFCou.
 Requested convergence on RMS density matrix=1.00D-08 within 128 cycles.
 Requested convergence on MAX density matrix=1.00D-06.
 Requested convergence on             energy=1.00D-06.
 No special actions if energy rises.
 Integral accuracy reduced to 1.0D-05 until final iterations.
 Initial convergence to 1.0D-05 achieved.  Increase integral accuracy.
 SCF Done:  E(RB3LYP) =  -323.776186122     A.U. after   10 cycles
            NFock= 10  Conv=0.52D-08     -V/T= 2.0034
 Calling FoFJK, ICntrl=      2127 FMM=F ISym2X=0 I1Cent= 0 IOpClX= 0 NMat=1 NMatS=1 NMatT=0.
 ***** Axes restored to original set *****
 -------------------------------------------------------------------
 Center     Atomic                   Forces (Hartrees/Bohr)
 Number     Number              X              Y              Z
 -------------------------------------------------------------------
      1        6           0.000197371    0.000033485   -0.000141391
      2        8          -0.001349976   -0.001393139   -0.000728660
      3        7          -0.000444542    0.001349578    0.000414158
      4        6           0.000153625   -0.000292097    0.000154238
      5        1           0.000162652    0.000299976   -0.000150477
      6        1           0.000108635    0.000004051    0.000392466
      7        6           0.000074150    0.000173811   -0.000129189
      8        1          -0.000207898    0.000407721    0.000050362
      9        1          -0.000046559   -0.000072296   -0.000427473
     10        1          -0.000432834   -0.000017914   -0.000101293
     11        1           0.000209302   -0.000383939   -0.000076664
     12        1           0.000027785    0.000030336    0.000420234
     13        8           0.001548287   -0.000139572    0.000323691
 -------------------------------------------------------------------
 Cartesian Forces:  Max     0.001548287 RMS     0.000519657

 GradGradGradGradGradGradGradGradGradGradGradGradGradGradGradGradGradGrad
 Berny optimization.
 Using GEDIIS/GDIIS optimizer.
 FormGI is forming the generalized inverse of G from B-inverse, IUseBI=4.
 Internal  Forces:  Max     0.003244824 RMS     0.000508491
 Search for a local minimum.
 Step number   3 out of a maximum of   64
 All quantities printed in internal units (Hartrees-Bohrs-Radians)
 Mixed Optimization -- En-DIIS/RFO-DIIS
 Swapping is turned off.
 Update second derivatives using D2CorX and points    1    2    3
 DE= -1.31D-05 DEPred=-3.32D-05 R= 3.93D-01
 Trust test= 3.93D-01 RLast= 1.86D-02 DXMaxT set to 3.00D-01
 ITU=  0  1  0
     Eigenvalues ---    0.00349   0.00480   0.01105   0.01427   0.03444
     Eigenvalues ---    0.04809   0.05320   0.05437   0.05529   0.05563
     Eigenvalues ---    0.08581   0.11229   0.12353   0.13585   0.15824
     Eigenvalues ---    0.16000   0.16003   0.20845   0.21992   0.25152
     Eigenvalues ---    0.29498   0.30075   0.33982   0.34107   0.34151
     Eigenvalues ---    0.34177   0.34288   0.34426   0.36572   0.38864
     Eigenvalues ---    0.43508   0.59737   0.98248
 En-DIIS/RFO-DIIS/Sim-DIIS IScMMF=       -3 using points:     3    2
 RFO step:  Lambda=-2.46015285D-05.
 DidBck=F Rises=F RFO-DIIS coefs:    0.83457    0.16543
 Iteration  1 RMS(Cart)=  0.00169225 RMS(Int)=  0.00000410
 Iteration  2 RMS(Cart)=  0.00000399 RMS(Int)=  0.00000010
 Iteration  3 RMS(Cart)=  0.00000000 RMS(Int)=  0.00000010
 Variable       Old X    -DE/DX   Delta X   Delta X   Delta X     New X
                                 (Linear)    (Quad)   (Total)
    R1        2.73430   0.00003  -0.00024   0.00033   0.00009   2.73439
    R2        2.86722   0.00026   0.00033   0.00013   0.00046   2.86768
    R3        2.06062   0.00037   0.00021   0.00054   0.00075   2.06137
    R4        2.06229   0.00040   0.00022   0.00057   0.00079   2.06308
    R5        2.63051   0.00115   0.00005   0.00121   0.00126   2.63178
    R6        2.22882   0.00063   0.00061  -0.00052   0.00009   2.22891
    R7        2.88604   0.00026   0.00019   0.00040   0.00059   2.88662
    R8        2.06438   0.00046   0.00015   0.00076   0.00091   2.06529
    R9        2.06220   0.00044   0.00022   0.00060   0.00082   2.06302
   R10        2.05850   0.00044   0.00017   0.00069   0.00086   2.05936
   R11        2.05720   0.00044   0.00018   0.00069   0.00086   2.05806
   R12        2.06188   0.00042   0.00021   0.00059   0.00080   2.06268
    A1        1.87923  -0.00029  -0.00007  -0.00091  -0.00098   1.87825
    A2        1.89629   0.00012   0.00011   0.00028   0.00039   1.89668
    A3        1.89928   0.00003   0.00027  -0.00084  -0.00057   1.89871
    A4        1.95241   0.00007   0.00005   0.00041   0.00047   1.95288
    A5        1.95225   0.00011   0.00006   0.00029   0.00035   1.95259
    A6        1.88319  -0.00004  -0.00041   0.00074   0.00032   1.88352
    A7        2.04090  -0.00038   0.00082  -0.00289  -0.00206   2.03884
    A8        2.00166   0.00324   0.00179   0.00387   0.00566   2.00732
    A9        1.98893  -0.00002  -0.00031   0.00033   0.00003   1.98896
   A10        1.86665   0.00001   0.00022  -0.00009   0.00014   1.86679
   A11        1.90053   0.00001   0.00002  -0.00015  -0.00013   1.90040
   A12        1.91856   0.00003   0.00002   0.00033   0.00035   1.91890
   A13        1.92535  -0.00002   0.00002  -0.00028  -0.00026   1.92509
   A14        1.85849  -0.00001   0.00006  -0.00017  -0.00011   1.85838
   A15        1.93370   0.00001   0.00007   0.00002   0.00009   1.93379
   A16        1.94170  -0.00004  -0.00024   0.00011  -0.00013   1.94157
   A17        1.93872   0.00004  -0.00001   0.00018   0.00016   1.93888
   A18        1.88376   0.00002   0.00015  -0.00012   0.00004   1.88380
   A19        1.87996  -0.00001   0.00004  -0.00003   0.00002   1.87997
   A20        1.88361  -0.00002  -0.00001  -0.00017  -0.00018   1.88343
    D1       -3.12627  -0.00000   0.00025  -0.00039  -0.00014  -3.12641
    D2        1.03921   0.00001   0.00016  -0.00051  -0.00034   1.03886
    D3       -1.00703  -0.00002   0.00044  -0.00107  -0.00063  -1.00766
    D4        1.14123  -0.00006  -0.00022  -0.00140  -0.00162   1.13961
    D5       -3.01810  -0.00003  -0.00023  -0.00083  -0.00106  -3.01916
    D6       -1.01625  -0.00003  -0.00004  -0.00116  -0.00119  -1.01744
    D7       -3.05967  -0.00005  -0.00009  -0.00140  -0.00149  -3.06116
    D8       -0.93582  -0.00002  -0.00010  -0.00083  -0.00093  -0.93675
    D9        1.06603  -0.00002   0.00009  -0.00115  -0.00106   1.06497
   D10       -0.94464   0.00003  -0.00055   0.00005  -0.00049  -0.94513
   D11        1.17922   0.00006  -0.00056   0.00062   0.00006   1.17927
   D12       -3.10212   0.00005  -0.00036   0.00029  -0.00007  -3.10219
   D13       -0.00075   0.00012   0.00066   0.00338   0.00404   0.00328
   D14        3.11985   0.00001   0.00063  -0.00113  -0.00051   3.11934
   D15       -1.06775   0.00002   0.00071  -0.00120  -0.00049  -1.06823
   D16        1.03102  -0.00001   0.00053  -0.00123  -0.00070   1.03033
   D17        1.02496  -0.00001   0.00053  -0.00148  -0.00095   1.02401
   D18        3.12055  -0.00000   0.00062  -0.00155  -0.00093   3.11962
   D19       -1.06387  -0.00003   0.00044  -0.00158  -0.00114  -1.06501
   D20       -1.01935   0.00000   0.00044  -0.00130  -0.00087  -1.02022
   D21        1.07624   0.00001   0.00052  -0.00137  -0.00084   1.07539
   D22       -3.10818  -0.00002   0.00034  -0.00140  -0.00105  -3.10924
         Item               Value     Threshold  Converged?
 Maximum Force            0.003245     0.000450     NO 
 RMS     Force            0.000508     0.000300     NO 
 Maximum Displacement     0.006558     0.001800     NO 
 RMS     Displacement     0.001691     0.001200     NO 
 Predicted change in Energy=-1.230168D-05
 GradGradGradGradGradGradGradGradGradGradGradGradGradGradGradGradGradGrad

                          Input orientation:                          
 ---------------------------------------------------------------------
 Center     Atomic      Atomic             Coordinates (Angstroms)
 Number     Number       Type             X           Y           Z
 ---------------------------------------------------------------------
      1          6           0       -0.281551    0.706548    0.014495
      2          8           0        0.396202   -0.501339   -0.404311
      3          7           0        1.763994   -0.573840   -0.152454
      4          6           0       -1.749828    0.554932   -0.337652
      5          1           0        0.173279    1.556888   -0.495364
      6          1           0       -0.132275    0.839387    1.087787
      7          6           0       -2.461799   -0.553765    0.435169
      8          1           0       -2.227336    1.516792   -0.134554
      9          1           0       -1.839761    0.385384   -1.412354
     10          1           0       -3.515012   -0.602648    0.159587
     11          1           0       -2.016158   -1.526215    0.230620
[...]
 ! R6    R(3,13)                 1.1792         -DE/DX =    0.0                 !
 ! R7    R(4,7)                  1.5276         -DE/DX =    0.0                 !
 ! R8    R(4,8)                  1.0933         -DE/DX =   -0.0001              !
 ! R9    R(4,9)                  1.092          -DE/DX =    0.0                 !
 ! R10   R(7,10)                 1.0901         -DE/DX =   -0.0001              !
 ! R11   R(7,11)                 1.0894         -DE/DX =   -0.0001              !
 ! R12   R(7,12)                 1.0918         -DE/DX =    0.0                 !
 ! A1    A(2,1,4)              107.6126         -DE/DX =    0.0                 !
 ! A2    A(2,1,5)              108.6666         -DE/DX =    0.0                 !
 ! A3    A(2,1,6)              108.779          -DE/DX =    0.0                 !
 ! A4    A(4,1,5)              111.8877         -DE/DX =    0.0                 !
 ! A5    A(4,1,6)              111.8815         -DE/DX =    0.0                 !
 ! A6    A(5,1,6)              107.932          -DE/DX =    0.0                 !
 ! A7    A(1,2,3)              116.8066         -DE/DX =    0.0                 !
 ! A8    A(2,3,13)             114.9942         -DE/DX =   -0.0001              !
 ! A9    A(1,4,7)              113.9571         -DE/DX =    0.0                 !
 ! A10   A(1,4,8)              106.995          -DE/DX =    0.0                 !
 ! A11   A(1,4,9)              108.875          -DE/DX =    0.0                 !
 ! A12   A(7,4,8)              109.9469         -DE/DX =    0.0                 !
 ! A13   A(7,4,9)              110.2872         -DE/DX =    0.0                 !
 ! A14   A(8,4,9)              106.4636         -DE/DX =    0.0                 !
 ! A15   A(4,7,10)             110.7971         -DE/DX =    0.0                 !
 ! A16   A(4,7,11)             111.2344         -DE/DX =    0.0                 !
 ! A17   A(4,7,12)             111.1045         -DE/DX =    0.0                 !
 ! A18   A(10,7,11)            107.9392         -DE/DX =    0.0                 !
 ! A19   A(10,7,12)            107.716          -DE/DX =    0.0                 !
 ! A20   A(11,7,12)            107.9008         -DE/DX =    0.0                 !
 ! D1    D(4,1,2,3)           -179.2552         -DE/DX =    0.0                 !
 ! D2    D(5,1,2,3)             59.4067         -DE/DX =    0.0                 !
 ! D3    D(6,1,2,3)            -57.8595         -DE/DX =    0.0                 !
 ! D4    D(2,1,4,7)             65.2215         -DE/DX =    0.0                 !
 ! D5    D(2,1,4,8)           -173.0321         -DE/DX =    0.0                 !
 ! D6    D(2,1,4,9)            -58.3438         -DE/DX =    0.0                 !
 ! D7    D(5,1,4,7)           -175.4755         -DE/DX =    0.0                 !
 ! D8    D(5,1,4,8)            -53.7292         -DE/DX =    0.0                 !
 ! D9    D(5,1,4,9)             60.9592         -DE/DX =    0.0                 !
 ! D10   D(6,1,4,7)            -54.2158         -DE/DX =    0.0                 !
 ! D11   D(6,1,4,8)             67.5305         -DE/DX =    0.0                 !
 ! D12   D(6,1,4,9)           -177.7811         -DE/DX =    0.0                 !
 ! D13   D(1,2,3,13)             0.0958         -DE/DX =    0.0                 !
 ! D14   D(1,4,7,10)           178.6881         -DE/DX =    0.0                 !
 ! D15   D(1,4,7,11)           -61.2423         -DE/DX =    0.0                 !
 ! D16   D(1,4,7,12)            58.9853         -DE/DX =    0.0                 !
 ! D17   D(8,4,7,10)            58.588          -DE/DX =    0.0                 !
 ! D18   D(8,4,7,11)           178.6576         -DE/DX =    0.0                 !
 ! D19   D(8,4,7,12)           -61.1147         -DE/DX =    0.0                 !
 ! D20   D(9,4,7,10)           -58.5149         -DE/DX =    0.0                 !
 ! D21   D(9,4,7,11)            61.5548         -DE/DX =    0.0                 !
 ! D22   D(9,4,7,12)          -178.2176         -DE/DX =    0.0                 !
 --------------------------------------------------------------------------------
 GradGradGradGradGradGradGradGradGradGradGradGradGradGradGradGradGradGrad


 ----------------------------------------------------------------------

 Electric dipole moment (input orientation):
 (Debye = 10**-18 statcoulomb cm , SI units = C m)
                  (au)            (Debye)         (10**-30 SI)
   Tot        0.100545D+01      0.255560D+01      0.852457D+01
   x         -0.872392D+00     -0.221740D+01     -0.739645D+01
   y          0.496235D+00      0.126130D+01      0.420725D+01
   z          0.601344D-01      0.152846D+00      0.509841D+00

 Dipole polarizability, Alpha (input orientation).
 (esu units = cm**3 , SI units = C**2 m**2 J**-1)
 Alpha(0;0):
               (au)            (10**-24 esu)      (10**-40 SI)
   iso        0.549854D+02      0.814799D+01      0.906587D+01
   aniso      0.228821D+02      0.339078D+01      0.377275D+01
   xx         0.697186D+02      0.103312D+02      0.114950D+02
   yx         0.863754D+00      0.127995D+00      0.142414D+00
   yy         0.497283D+02      0.736897D+01      0.819908D+01
   zx         0.241487D+01      0.357847D+00      0.398159D+00
   zy         0.837378D+00      0.124087D+00      0.138065D+00
   zz         0.455093D+02      0.674378D+01      0.750346D+01

 ----------------------------------------------------------------------

 Dipole orientation:
     6          0.41051456          0.79885597          1.12233221
     8         -0.82631131         -0.05389412         -1.16342003
     7          0.27922320          0.65385415         -3.44726058
     6         -1.08721740         -0.21359458          3.34897452
     1          0.47131663          2.85968153          1.11025110
     1          2.35426242          0.10587787          1.12403954
     6         -1.05761645         -3.09178272          3.57008724
     1         -0.28207650          0.63251398          5.05309297
     1         -3.02842640          0.47387518          3.21576379
     1         -2.12296882         -3.70947506          5.22140373
     1         -1.89326288         -3.97580487          1.90931011
     1          0.86970406         -3.80216604          3.76456772
     8          2.12776633          1.88368143         -3.25731425

 Electric dipole moment (dipole orientation):
 (Debye = 10**-18 statcoulomb cm , SI units = C m)
                  (au)            (Debye)         (10**-30 SI)
   Tot        0.100545D+01      0.255560D+01      0.852457D+01
   x          0.000000D+00      0.000000D+00      0.000000D+00
   y          0.000000D+00      0.000000D+00      0.000000D+00
   z          0.100545D+01      0.255560D+01      0.852457D+01

 Dipole polarizability, Alpha (dipole orientation).
 (esu units = cm**3 , SI units = C**2 m**2 J**-1)
 Alpha(0;0):
               (au)            (10**-24 esu)      (10**-40 SI)
   iso        0.549854D+02      0.814799D+01      0.906587D+01
   aniso      0.228821D+02      0.339078D+01      0.377275D+01
   xx         0.502323D+02      0.744366D+01      0.828219D+01
   yx         0.537399D+01      0.796343D+00      0.886051D+00
   yy         0.509022D+02      0.754293D+01      0.839264D+01
   zx        -0.681954D+01     -0.101055D+01     -0.112439D+01
   zy        -0.636175D+01     -0.942715D+00     -0.104891D+01
   zz         0.638217D+02      0.945740D+01      0.105228D+02

 ----------------------------------------------------------------------
 1\1\GINC-GAMBA\Freq\RB3LYP\Gen\C3H7N1O2\IRIKURA\20-Jun-2022\0\\#N Geom
 =AllCheck Guess=TCheck SCRF=Check GenChk RB3LYP/ChkBas Freq\\propyl ni
 trite, B3LYP/pcseg-2\\0,1\C,-0.2815814939,0.7064736065,0.0153683481\O,
 0.3960040306,-0.5025004671,-0.402143959\N,1.7654046202,-0.5741462113,-
 0.1516673395\C,-1.7499855276,0.5551388759,-0.3374149739\H,0.1739327148
 ,1.5562113666,-0.4953275833\H,-0.1326105363,0.840109438,1.0888748505\C
 ,-2.4623886945,-0.5537927724,0.434877414\H,-2.2281023703,1.5171962097,
 -0.1347831577\H,-1.8393657638,0.3854559221,-1.4124791248\H,-3.51595306
 57,-0.6020506188,0.159311275\H,-2.016954343,-1.5265050113,0.2295127773
 \H,-2.4081684343,-0.3804159538,1.5114882389\O,2.2244898638,0.371937615
 8,0.3819002344\\Version=ES64L-G16RevB.01\State=1-A\HF=-323.7761999\RMS
 D=4.008e-09\RMSF=7.383e-05\ZeroPoint=0.1050334\Thermal=0.1119817\Dipol
 e=-0.8723918,0.4962347,0.0601344\DipoleDeriv=0.4695536,-0.1236477,-0.0
 376437,-0.2753917,0.3829818,0.0060782,-0.092834,0.024346,0.3160873,-1.
 5215144,0.0149604,-0.2307868,0.3201094,-0.3946884,-0.0393393,-0.116407
 1,-0.1003351,-0.2503584,1.7832649,0.1276331,0.3904693,0.7452916,0.3188
 663,0.2952313,0.724489,0.1822647,0.1936759,0.106496,0.0144937,-0.01725
 87,0.0596462,0.1393974,0.0029113,-0.0048532,0.001918,0.1266592,-0.0728
 528,-0.0692589,0.0473924,0.0255502,-0.0544395,0.0414277,0.0568102,0.06
 50527,0.0141726,-0.0180123,0.0162577,-0.0346003,0.0771615,0.0257428,0.
 0163513,0.0008548,-0.0343567,-0.1041979,0.0393106,-0.0194709,0.0091203
 ,-0.0169235,0.0324787,0.024136,-0.0089446,0.0304137,0.0937637,-0.04917
 83,0.0536897,0.0098278,0.050151,-0.1291893,-0.0055907,0.0283466,-0.033
 1792,0.056423,0.0189468,-0.0183089,0.0110881,-0.0496425,0.0444247,-0.0
 20433,-0.0150107,0.0074663,-0.1412127,-0.1634114,-0.0401936,-0.0310104
 ,-0.0194391,0.0543847,0.0208698,-0.0503926,0.0125449,0.0475555,0.04843
 7,0.0781817,0.0237647,0.0385035,-0.0892918,0.0008092,0.02793,-0.026249
 4,0.0448216,0.0580787,-0.0228828,-0.0303262,-0.0207901,0.030832,-0.045
 2813,0.0131715,-0.0020882,-0.1523343,-0.6991184,-0.0114536,-0.1100364,
 -0.9342266,-0.3614995,-0.2971704,-0.5631599,-0.1277978,-0.2450554\Pola
 r=69.7186338,0.8637538,49.7282655,2.4148735,0.8373778,45.5092694\Quadr
 upole=-1.6316894,0.4357464,1.1959431,-0.1829358,-0.3051725,-0.8237374\
 PG=C01 [X(C3H7N1O2)]\NImag=0\\0.47998973,0.08257472,0.46967696,0.01178
 320,-0.04903554,0.58555787,-0.06928588,-0.00216413,-0.00026300,0.25834
 458,-0.00733031,-0.14402227,-0.03340891,-0.01388886,0.30526943,-0.0025
 5637,-0.03274261,-0.08897517,0.03112055,0.10381762,0.12794012,-0.05375
 731,0.04830392,0.00710506,-0.07039462,0.06446160,0.02277696,0.28300048
 ,0.03885619,0.01453503,0.00454495,0.06412344,-0.12773457,-0.03050896,0
 .03284648,0.67812364,0.00185706,0.00670216,0.02599244,0.02229847,-0.03
 042508,-0.04413626,0.06644275,0.30562922,0.18940462,-0.17801445,-0.019
 52831,-0.03002123,-0.03005439,0.01132771,-0.00188838,0.00273838,0.0017
 7028,0.00166888,0.47470129,-0.02576035,-0.07649610,-0.00311203,0.04440
 462,-0.00403190,0.00760888,-0.00015687,-0.01208746,-0.00564674,-0.0373
 3152,0.53925527,-0.03177289,-0.00026016,-0.09174483,0.01355809,0.00006
 597,0.00312604,0.00013956,-0.00483456,-0.00207642,0.00177348,0.0363775
 6,0.56319748,-0.09530857,-0.08558107,0.05606353,0.00497937,0.01904911,
 -0.01013080,0.00218784,0.00182065,0.00490509,-0.01244633,-0.02389355,0
 .01684721,0.10343547,-0.08327583,-0.19355869,0.09512008,0.00297828,-0.
 03829812,0.00771376,-0.00778199,-0.00122396,-0.00425849,-0.00082894,0.
 00004571,0.00070119,0.08696152,0.22340178,0.05369984,0.09849217,-0.114
 72963,-0.00633186,-0.01324761,0.00772732,0.00167604,0.00214189,-0.0001
 0837,-0.00460369,-0.00766419,0.00432135,-0.05839822,-0.10183043,0.1156
 5598,-0.05304608,-0.00347087,-0.03737138,-0.00314485,0.00628294,0.0195
 8734,0.00472279,0.00489811,-0.00007796,-0.00464118,-0.00413943,-0.0323
 4217,0.00208612,-0.00009676,0.01306037,0.05887072,-0.00488221,-0.05107
 215,-0.01742409,0.00592859,-0.01592911,-0.03610202,-0.00531440,-0.0016
 6137,0.00099421,-0.00124783,0.00069230,-0.00205469,0.00248035,0.004323
 60,0.02409397,0.00006020,0.05988212,-0.03389777,-0.02136131,-0.2968595
 5,0.00837962,-0.01196026,-0.00657815,-0.00603884,-0.00136487,-0.002347
 61,-0.00162038,0.00017199,-0.00628336,-0.00296774,-0.00031672,-0.01507
 463,0.03708941,0.03164029,0.32188918,-0.02196446,-0.02729537,0.0182603
 2,0.00174681,-0.00199119,0.00072418,-0.00029324,-0.00080740,-0.0004840
 1,-0.09959197,-0.03310863,0.02272771,-0.00548931,-0.00013392,-0.001039
 39,0.00224607,0.00037428,0.00077801,0.54946213,-0.00742883,-0.00188949
 ,0.00045700,-0.00033181,0.00021546,0.00009476,0.00083577,-0.00022511,0
 .00052170,-0.03371881,-0.13732628,0.04013826,0.00106102,0.00102848,0.0
 0007028,0.00074722,-0.00007939,0.00021038,-0.03578543,0.51475864,-0.00
 054561,-0.00717111,0.00513912,-0.00036020,0.00030803,0.00015743,0.0006
 2822,0.00041975,0.00060126,0.02466573,0.04145583,-0.10994448,-0.003368
 04,-0.00011996,0.00005815,-0.00094900,-0.00103028,0.00116181,0.0262497
 2,0.03784526,0.53621917,-0.01340066,0.02816837,0.00801649,-0.00976664,
 -0.00064428,-0.00269817,0.00099173,0.00408518,0.00204018,-0.09742550,0
 .09743978,0.02009924,0.00093313,-0.00029587,0.00083019,0.00100429,-0.0
 0012965,-0.00060337,0.00728343,-0.01586667,-0.00306690,0.10905643,-0.0
 0061145,0.00066773,0.00039942,-0.00107790,0.00160953,0.00003153,-0.001
 01923,0.00051527,0.00007479,0.09869980,-0.24030526,-0.04423103,0.00050
 206,0.00076704,0.00013257,0.00041175,0.00018154,0.00027800,0.00931789,
 -0.02261773,-0.00386324,-0.10565140,0.26440835,-0.00402275,0.00735996,
 0.00035783,-0.00151295,-0.00032835,0.00030388,-0.00074206,0.00066256,0
 .00040375,0.02145942,-0.04469585,-0.05781412,0.00044100,-0.00003117,0.
 00029923,0.00058030,0.00006815,0.00002392,-0.00755712,0.01698859,0.002
 88319,-0.02471917,0.04609349,0.05931799,-0.00618358,-0.00589598,-0.035
 91139,0.00380032,-0.00133963,0.00023222,-0.00126666,-0.00088079,-0.000
 51611,-0.04981012,-0.00246728,-0.01801350,0.00127246,-0.00000147,0.000
 61619,-0.00603224,-0.00006557,-0.00091103,0.00067279,0.00235873,0.0163
 4382,0.00123504,0.00220254,0.01487051,0.05670805,0.00082396,-0.0017241
 9,-0.00336464,-0.00037058,0.00074187,0.00114918,0.00051556,0.00035167,
 0.00003574,-0.00396114,-0.05567461,-0.04259557,0.00008855,-0.00012152,
 -0.00030196,-0.00071848,0.00086817,0.00048893,0.00128258,0.00364810,0.
 02606416,-0.00322085,-0.00493128,-0.02766153,0.00722885,0.05873311,-0.
 00205044,-0.00189513,-0.00895806,0.00123654,-0.00012132,0.00105167,-0.
 00091509,-0.00002445,-0.00020123,-0.02049431,-0.04127267,-0.29461323,-
 0.00051824,-0.00012101,0.00063288,-0.00124369,-0.00057019,0.00115554,-
 0.00011372,-0.00171968,-0.01624557,-0.00001679,-0.00183446,-0.00584588
 ,0.02202783,0.04441026,0.32152751,0.00027619,-0.00253721,0.00243490,-0
 .00022349,-0.00024962,-0.00002711,0.00073317,0.00014541,0.00024739,-0.
 01332815,0.00027366,-0.00416195,-0.00093379,0.00017019,-0.00018778,0.0
 0026311,0.00008123,0.00004835,-0.29150730,-0.00880515,-0.06584776,0.00
 071543,-0.00028159,-0.00026669,0.00028120,0.00033614,0.00044647,0.3170
 3786,-0.00142021,-0.00445926,0.00348979,0.00068594,0.00023575,-0.00020
 730,-0.00056857,0.00005500,-0.00019649,-0.02486720,-0.00146379,-0.0076
 1704,-0.00154066,-0.00002557,-0.00009817,0.00033024,0.00000688,0.00008
 716,-0.00720791,-0.04702247,-0.00210101,0.00040217,0.00081124,-0.00095
 835,0.00063727,0.00097644,-0.00009901,0.01137731,0.04953417,0.00102478
 ,0.00265475,-0.00198716,-0.00015559,0.00021397,0.00011964,-0.00004159,
 0.00003158,-0.00005882,0.01823493,0.00029736,0.00420473,0.00089867,0.0
 0012721,0.00043057,0.00023648,0.00018157,0.00026646,-0.06720447,-0.002
 70499,-0.06512981,-0.00062719,-0.00054982,0.00054516,-0.00013389,-0.00
 082121,0.00056796,0.07180618,0.00032867,0.06739463,0.00102845,-0.00026
 861,-0.00063653,-0.00049000,-0.00027053,0.00019976,-0.00080826,-0.0001
 7452,-0.00017827,0.00712849,-0.01558790,-0.00374520,0.00013181,0.00019
 345,0.00004393,-0.00009542,0.00001999,-0.00002403,-0.09370559,0.099265
 03,0.02142863,-0.00110827,-0.00301905,0.00180540,0.00045904,0.00084749
 ,-0.00042373,-0.01236767,0.02790517,0.00714292,0.09895335,0.00163929,-
 0.00074376,-0.00026874,0.00068885,0.00083199,-0.00036330,-0.00133916,0
 .00026381,-0.00033334,0.00908854,-0.02217820,-0.00447756,-0.00004633,0
 .00019385,0.00005999,-0.00017643,0.00000372,-0.00003607,0.09693840,-0.
 25478260,-0.04630461,-0.00280236,-0.00219708,0.00291799,0.00018434,0.0
 0092723,0.00013773,-0.00042903,0.00230976,0.00075857,-0.10599312,0.279
 05226,-0.00040108,-0.00072213,0.00047814,0.00036067,0.00018969,-0.0000
 9479,0.00020182,-0.00009561,-0.00012213,-0.00814329,0.01675327,0.00332
 519,-0.00010186,-0.00006448,-0.00005525,0.00010240,-0.00005662,-0.0000
 1402,0.02158811,-0.04760585,-0.05874421,0.00212151,0.00312145,-0.00112
 345,-0.00080927,-0.00036388,0.00066441,-0.00351406,0.00874730,0.001124
 42,-0.02537766,0.04879544,0.06014685,0.00130041,0.00087150,0.00152818,
 -0.00021075,0.00013454,-0.00026494,-0.00001492,-0.00000712,0.00007341,
 -0.00028745,0.00271576,0.01613570,0.00019438,-0.00001313,-0.00028271,-
 0.00012589,-0.00011389,-0.00055319,-0.04858800,-0.00223728,-0.01471075
 ,0.00039243,0.00032816,-0.00075259,-0.00092554,-0.00258230,0.00177096,
 -0.00058232,-0.00585471,-0.03134931,0.00054017,0.00171045,0.01415675,0
 .04832881,0.00114544,0.00119603,0.00017897,0.00016623,-0.00017115,-0.0
 0012121,-0.00016168,0.00001732,-0.00003924,0.00118217,0.00364496,0.026
 53501,0.00032672,-0.00003601,-0.00016251,-0.00017790,0.00014855,-0.000
 58894,-0.00240729,-0.05549316,-0.04512830,0.00079976,0.00106348,-0.000
 35019,-0.00292554,-0.00333823,0.00275876,0.00017424,-0.00117829,-0.000
 47124,-0.00330932,-0.00407749,-0.02859122,0.00509640,0.05811507,-0.000
 94104,-0.00064860,0.00051622,0.00042620,-0.00005218,0.00012722,-0.0002
 7838,-0.00009228,-0.00020133,-0.00072978,-0.00225454,-0.01736739,-0.00
 003614,0.00007085,0.00041721,0.00099727,0.00014187,0.00044840,-0.01400
 749,-0.04383600,-0.29560351,-0.00030944,0.00032989,0.00064491,0.001566
 06,0.00307549,-0.00000889,-0.00070749,-0.00153303,-0.00757254,-0.00046
 270,-0.00128648,-0.00558968,0.01429933,0.04590671,0.32402204,0.0083662
 1,-0.01317697,-0.00098815,-0.08530046,-0.07554149,-0.05707524,-0.16783
 937,-0.14667593,-0.09827688,0.00103136,-0.00238829,-0.00124529,-0.0010
 4256,0.00212447,0.00091710,-0.00210745,0.00280891,0.00032093,-0.000271
 35,-0.00009379,-0.00046788,0.00008918,0.00019843,0.00041671,-0.0002107
 6,-0.00026978,0.00029422,-0.00036425,0.00012115,0.00016808,0.00033390,
 0.00053658,-0.00018403,-0.00002134,0.00009078,0.00018360,0.24733691,0.
 00566958,-0.01210985,0.00242376,-0.10114266,0.02128309,-0.02037032,-0.
 13062143,-0.55092926,-0.27305844,-0.00058475,0.00592538,0.00225260,-0.
 00122838,0.00350340,-0.00168599,-0.00395060,0.00263513,0.00275141,0.00
 082400,-0.00021446,-0.00037453,-0.00228418,0.00002718,-0.00006531,0.00
 096453,-0.00045676,0.00035118,-0.00025558,0.00022015,-0.00004642,0.000
 39191,0.00039650,-0.00010736,-0.00004837,0.00010891,0.00017829,0.23226
 592,0.52961059,0.00782306,-0.00137244,-0.01478723,-0.06875654,-0.01505
 157,-0.00076894,-0.09095445,-0.27650923,-0.16714991,-0.00030137,0.0019
 8112,0.00166904,-0.00363446,0.00300916,0.00042519,0.00033064,0.0001178
 4,0.00221202,0.00007816,-0.00045972,-0.00055255,-0.00106658,0.00001742
 ,0.00000359,0.00063856,-0.00011499,0.00027290,-0.00027047,0.00015748,0
 .00009477,0.00022748,0.00040039,0.00000453,-0.00005085,0.00007340,0.00
 016736,0.15593681,0.28775114,0.17840923\\-0.00006683,0.00011484,0.0000
 2293,0.00028436,-0.00014592,-0.00001205,-0.00024060,0.00006635,-0.0000
 0736,0.00003468,-0.00003707,0.00004262,0.00001041,0.00001971,-0.000028
 58,0.00001117,-0.00001991,0.00003675,0.00002541,0.00004492,-0.00001696
 ,-0.00004106,0.00005940,0.00000248,-0.00000885,-0.00000822,-0.00004656
 ,-0.00005659,-0.00000631,-0.00001761,0.00001543,-0.00005827,-0.0000113
 2,0.00000187,0.00000169,0.00004785,0.00003060,-0.00003121,-0.00001219\
 \\@


 DON'T WORRY CHARLIE BROWN...WE LEARN MORE FROM LOSING 
 THAN WE DO FROM WINNING.
 THEN THAT MAKES ME THE SMARTEST PERSON IN THE WORLD...
 CHARLES SCHULZ 'PEANUTS'
 Job cpu time:       0 days  0 hours 47 minutes 44.9 seconds.
 Elapsed time:       0 days  0 hours  3 minutes 58.8 seconds.
 File lengths (MBytes):  RWF=     93 Int=      0 D2E=      0 Chk=      7 Scr=      1
 Normal termination of Gaussian 16 at Mon Jun 20 11:24:57 2022.
