 Entering Gaussian System, Link 0=g16
 AtFile(1): pcseg2.gbs
            -H     0
            S   4   1.00
                  0.754732D+02           0.427821D-02
                  0.113575D+02           0.328672D-01
                  0.260081D+01           0.159578D+00
                  0.735503D+00           0.500000D+00
            S   1   1.00
                  0.231761D+00           1.0000000
            S   1   1.00
                  0.741675D-01           1.0000000
            P   1   1.00
                  0.160000D+01           1.0000000
            P   1   1.00
                  0.450000D+00           1.0000000
            D   1   1.00
                  0.125000D+01           1.0000000
            ****
            -C     0
            S   7   1.00
                  0.731999D+04           0.695369D-03
                  0.109818D+04           0.537138D-02
                  0.250014D+03           0.274734D-01
                  0.707586D+02           0.105078D+00
                  0.228595D+02           0.291262D+00
                  0.803936D+01           0.500000D+00
                  0.289309D+01           0.362224D+00
            S   2   1.00
                  0.521640D+01          -0.957844D-01
                  0.556124D+00           0.500000D+00
            S   1   1.00
                  0.228813D+00           1.0000000
            S   1   1.00
                  0.936338D-01           1.0000000
            P   4   1.00
                  0.339855D+02           0.818395D-02
                  0.772957D+01           0.586921D-01
                  0.224954D+01           0.222514D+00
                  0.767681D+00           0.500000D+00
            P   1   1.00
                  0.263283D+00           1.0000000
            P   1   1.00
                  0.848744D-01           1.0000000
            D   1   1.00
                  0.140000D+01           1.0000000
            D   1   1.00
                  0.450000D+00           1.0000000
            F   1   1.00
                  0.950000D+00           1.0000000
            ****
            -O     0
            S   7   1.00
                  0.135887D+05           0.665492D-03
                  0.203847D+04           0.514222D-02
                  0.464041D+03           0.263472D-01
                  0.131339D+03           0.101500D+00
                  0.425340D+02           0.285877D+00
                  0.150429D+02           0.500000D+00
                  0.546616D+01           0.368211D+00
            S   2   1.00
                  0.100915D+02          -0.100084D+00
                  0.110429D+01           0.500000D+00
            S   1   1.00
                  0.448082D+00           1.0000000
            S   1   1.00
                  0.175325D+00           1.0000000
            P   4   1.00
                  0.608220D+02           0.908253D-02
                  0.140332D+02           0.645878D-01
                  0.418244D+01           0.241502D+00
                  0.142490D+01           0.500000D+00
            P   1   1.00
                  0.478741D+00           1.0000000
            P   1   1.00
                  0.146257D+00           1.0000000
            D   1   1.00
                  0.220000D+01           1.0000000
            D   1   1.00
                  0.650000D+00           1.0000000
            F   1   1.00
                  0.110000D+01           1.0000000
            ****
            -N     0
            S   7   1.00
                  0.101643D+05           0.682757D-03
                  0.152481D+04           0.527488D-02
                  0.347119D+03           0.270037D-01
                  0.982389D+02           0.103673D+00
                  0.317799D+02           0.289575D+00
                  0.112240D+02           0.500000D+00
                  0.406611D+01           0.364621D+00
            S   2   1.00
                  0.747898D+01          -0.975681D-01
                  0.805040D+00           0.500000D+00
            S   1   1.00
                  0.324626D+00           1.0000000
            S   1   1.00
                  0.128132D+00           1.0000000
            P   4   1.00
                  0.482704D+02           0.829547D-02
                  0.110815D+02           0.596223D-01
                  0.326643D+01           0.227889D+00
                  0.111680D+01           0.500000D+00
            P   1   1.00
                  0.382049D+00           1.0000000
            P   1   1.00
                  0.121222D+00           1.0000000
            D   1   1.00
                  0.180000D+01           1.0000000
            D   1   1.00
                  0.550000D+00           1.0000000
            F   1   1.00
                  0.102000D+01           1.0000000
            ****
            -F     0
            S   7   1.00
                  0.174507D+05           0.655972D-03
                  0.261768D+04           0.506944D-02
                  0.595857D+03           0.259899D-01
                  0.168651D+03           0.100353D+00
                  0.546654D+02           0.284095D+00
                  0.193717D+02           0.500000D+00
                  0.706202D+01           0.370721D+00
            S   2   1.00
                  0.131197D+02          -0.101997D+00
                  0.145046D+01           0.500000D+00
            S   1   1.00
                  0.588255D+00           1.0000000
            S   1   1.00
                  0.227960D+00           1.0000000
            P   4   1.00
                  0.779407D+02           0.931135D-02
                  0.180425D+02           0.663964D-01
                  0.542342D+01           0.246386D+00
                  0.184876D+01           0.500000D+00
            P   1   1.00
                  0.617455D+00           1.0000000
            P   1   1.00
                  0.185496D+00           1.0000000
            D   1   1.00
                  0.280000D+01           1.0000000
            D   1   1.00
                  0.800000D+00           1.0000000
            F   1   1.00
                  0.120000D+01           1.0000000
            ****
            -Cl     0
            S   8   1.00
                  0.154272D+06           0.222473D-03
                  0.231232D+05           0.172590D-02
                  0.526257D+04           0.899286D-02
                  0.148995D+04           0.367724D-01
                  0.485417D+03           0.121446D+00
                  0.174634D+03           0.304148D+00
                  0.672393D+02           0.500000D+00
                  0.265780D+02           0.360252D+00
            S   3   1.00
                  0.131826D+03          -0.531330D-01
                  0.400703D+02          -0.233346D+00
                  0.789448D+01           0.500000D+00
            S   2   1.00
                  0.427711D+01           0.500000D+00
                  0.196233D+01           0.370517D+00
            S   1   1.00
                  0.520793D+00           1.0000000
            S   1   1.00
                  0.181633D+00           1.0000000
            P   7   1.00
                  0.124440D+04           0.988206D-03
                  0.295109D+03           0.829674D-02
                  0.947224D+02           0.430906D-01
                  0.352588D+02           0.148443D+00
                  0.144211D+02           0.344744D+00
                  0.610371D+01           0.500000D+00
                  0.258886D+01           0.348278D+00
            P   2   1.00
                  0.109447D+02          -0.196768D-01
                  0.104413D+01           0.500000D+00
            P   1   1.00
                  0.376184D+00           1.0000000
            P   1   1.00
                  0.120613D+00           1.0000000
            D   1   1.00
                  0.231000D+01           1.0000000
            D   1   1.00
                  0.520000D+00           1.0000000
            F   1   1.00
                  0.720000D+00           1.0000000
            ****
            -S     0
            S   8   1.00
                  0.134700D+06           0.226231D-03
                  0.201904D+05           0.175488D-02
                  0.459528D+04           0.914190D-02
                  0.130109D+04           0.373551D-01
                  0.423902D+03           0.123121D+00
                  0.152485D+03           0.306801D+00
                  0.586925D+02           0.500000D+00
                  0.231461D+02           0.354358D+00
            S   3   1.00
                  0.116327D+03          -0.491772D-01
                  0.352841D+02          -0.215962D+00
                  0.677831D+01           0.500000D+00
            S   2   1.00
                  0.360404D+01           0.500000D+00
                  0.164871D+01           0.366278D+00
            S   1   1.00
                  0.421821D+00           1.0000000
            S   1   1.00
                  0.147554D+00           1.0000000
            P   7   1.00
                  0.104863D+04           0.105273D-02
                  0.248717D+03           0.879338D-02
                  0.797887D+02           0.453358D-01
                  0.296023D+02           0.154476D+00
                  0.120627D+02           0.352366D+00
                  0.507628D+01           0.500000D+00
                  0.213375D+01           0.346429D+00
            P   2   1.00
                  0.928958D+01          -0.185932D-01
                  0.837819D+00           0.500000D+00
            P   1   1.00
                  0.301495D+00           1.0000000
            P   1   1.00
                  0.974740D-01           1.0000000
            D   1   1.00
                  0.210000D+01           1.0000000
            D   1   1.00
                  0.480000D+00           1.0000000
            F   1   1.00
                  0.660000D+00           1.0000000
            ****
            -Br     0
            S    10   1.00
                  0.233625D+07           0.532336D-04
                  0.349961D+06           0.413715D-03
                  0.796444D+05           0.217123D-02
                  0.225555D+05           0.910109D-02
                  0.735546D+04           0.323789D-01
                  0.265352D+04           0.988755D-01
                  0.103517D+04           0.248138D+00
                  0.422205D+03           0.474328D+00
                  0.180035D+03           0.500000D+00
                  0.793308D+02           0.187769D+00
            S    4   1.00
                  0.620834D+03          -0.226511D-01
                  0.190829D+03          -0.109497D+00
                  0.312505D+02           0.500000D+00
                  0.135270D+02           0.492812D+00
            S    2   1.00
                  0.216097D+02          -0.165418D+00
                  0.372566D+01           0.500000D+00
            S    1   1.00
                  0.169770D+01           1.0000000
            S    1   1.00
                  0.489332D+00           1.0000000
            S    1   1.00
                  0.175712D+00           1.0000000
            P    8   1.00
                  0.960829D+04           0.478974D-03
                  0.227618D+04           0.417853D-02
                  0.736723D+03           0.229315D-01
                  0.281579D+03           0.892653D-01
                  0.118395D+03           0.255288D+00
                  0.527481D+02           0.479074D+00
                  0.245098D+02           0.500000D+00
                  0.112009D+02           0.200944D+00
            P    4   1.00
                  0.587849D+02          -0.189674D-01
                  0.918962D+01           0.264104D+00
                  0.413895D+01           0.500000D+00
                  0.184225D+01           0.319316D+00
            P    1   1.00
                  0.713862D+00           1.0000000
            P    1   1.00
                  0.274232D+00           1.0000000
            P    1   1.00
                  0.944411D-01           1.0000000
            D    7   1.00
                  0.398470D+03           0.204066D-02
                  0.118967D+03           0.175171D-01
                  0.450197D+02           0.829708D-01
                  0.190320D+02           0.236284D+00
                  0.855686D+01           0.428468D+00
                  0.382950D+01           0.500000D+00
                  0.166291D+01           0.349360D+00
            D    1   1.00
                  0.672953D+00           1.0000000
            D    1   1.00
                  0.252000D+00           1.0000000
            F    1   1.00
                  0.530000D+00           1.0000000
            ****
            -Si     0
            S    8   1.00
                  0.996133D+05           0.235546D-03
                  0.149311D+05           0.182707D-02
                  0.339820D+04           0.951425D-02
                  0.962140D+03           0.388172D-01
                  0.313430D+03           0.127328D+00
                  0.112683D+03           0.313522D+00
                  0.433372D+02           0.500000D+00
                  0.170029D+02           0.340347D+00
            S    3   1.00
                  0.884208D+02          -0.404451D-01
                  0.266756D+02          -0.178059D+00
                  0.479640D+01           0.500000D+00
            S    2   1.00
                  0.239385D+01           0.500000D+00
                  0.108333D+01           0.338016D+00
            S    1   1.00
                  0.252420D+00           1.0000000
            S    1   1.00
                  0.891210D-01           1.0000000
            P    7   1.00
                  0.709901D+03           0.123028D-02
                  0.168426D+03           0.101366D-01
                  0.539946D+02           0.511840D-01
                  0.198646D+02           0.169967D+00
                  0.801369D+01           0.370717D+00
                  0.331870D+01           0.500000D+00
                  0.136112D+01           0.344128D+00
            P    2   1.00
                  0.622158D+01          -0.166609D-01
                  0.503049D+00           0.500000D+00
            P    1   1.00
                  0.179848D+00           1.0000000
            P    1   1.00
                  0.591912D-01           1.0000000
            D    1   1.00
                  0.168000D+01           1.0000000
            D    1   1.00
                  0.380000D+00           1.0000000
            F    1   1.00
                  0.540000D+00           1.0000000
            ****
            -P     0
            S    8   1.00
                  0.116416D+06           0.230715D-03
                  0.174500D+05           0.178960D-02
                  0.397149D+04           0.932116D-02
                  0.112447D+04           0.380591D-01
                  0.366347D+03           0.125148D+00
                  0.131757D+03           0.310022D+00
                  0.506988D+02           0.500000D+00
                  0.199436D+02           0.347528D+00
            S    3   1.00
                  0.101878D+03          -0.446755D-01
                  0.308249D+02          -0.196376D+00
                  0.573688D+01           0.500000D+00
            S    2   1.00
                  0.296868D+01           0.500000D+00
                  0.135315D+01           0.355098D+00
            S    1   1.00
                  0.332196D+00           1.0000000
            S    1   1.00
                  0.116229D+00           1.0000000
            P    7   1.00
                  0.873928D+03           0.112375D-02
                  0.207298D+03           0.933330D-02
                  0.664628D+02           0.477213D-01
                  0.245665D+02           0.160733D+00
                  0.996820D+01           0.359760D+00
                  0.416536D+01           0.500000D+00
                  0.173022D+01           0.346593D+00
            P    2   1.00
                  0.772530D+01          -0.175718D-01
                  0.657252D+00           0.500000D+00
            P    1   1.00
                  0.239903D+00           1.0000000
            P    1   1.00
                  0.800988D-01           1.0000000
            D    1   1.00
                  0.189000D+01           1.0000000
            D    1   1.00
                  0.430000D+00           1.0000000
            F    1   1.00
                  0.600000D+00           1.0000000
            ****
            
 Initial command:
 /usr/local/apps/g16_b01_avx/g16/l1.exe "/wrk/irikura/Gau-425808.inp" -scrdir="/wrk/irikura/"
 Entering Link 1 = /usr/local/apps/g16_b01_avx/g16/l1.exe PID=    425810.
  
 Copyright (c) 1988-2017, Gaussian, Inc.  All Rights Reserved.
  
 This is part of the Gaussian(R) 16 program.  It is based on
 the Gaussian(R) 09 system (copyright 2009, Gaussian, Inc.),
 the Gaussian(R) 03 system (copyright 2003, Gaussian, Inc.),
 the Gaussian(R) 98 system (copyright 1998, Gaussian, Inc.),
 the Gaussian(R) 94 system (copyright 1995, Gaussian, Inc.),
 the Gaussian 92(TM) system (copyright 1992, Gaussian, Inc.),
 the Gaussian 90(TM) system (copyright 1990, Gaussian, Inc.),
 the Gaussian 88(TM) system (copyright 1988, Gaussian, Inc.),
 the Gaussian 86(TM) system (copyright 1986, Carnegie Mellon
 University), and the Gaussian 82(TM) system (copyright 1983,
 Carnegie Mellon University). Gaussian is a federally registered
 trademark of Gaussian, Inc.
  
 This software contains proprietary and confidential information,
 including trade secrets, belonging to Gaussian, Inc.
  
 This software is provided under written license and may be
 used, copied, transmitted, or stored only in accord with that
 written license.
  
 The following legend is applicable only to US Government
 contracts under FAR:
  
                    RESTRICTED RIGHTS LEGEND
  
 Use, reproduction and disclosure by the US Government is
 subject to restrictions as set forth in subparagraphs (a)
 and (c) of the Commercial Computer Software - Restricted
 Rights clause in FAR 52.227-19.
  
 Gaussian, Inc.
 340 Quinnipiac St., Bldg. 40, Wallingford CT 06492
  
  
 ---------------------------------------------------------------
 Warning -- This program may not be used in any manner that
 competes with the business of Gaussian, Inc. or will provide
 assistance to any competitor of Gaussian, Inc.  The licensee
 of this program is prohibited from giving any competitor of
 Gaussian, Inc. access to this program.  By using this program,
 the user acknowledges that Gaussian, Inc. is engaged in the
 business of creating and licensing software in the field of
 computational chemistry and represents and warrants to the
 licensee that it is not a competitor of Gaussian, Inc. and that
 it will not use this program in any manner prohibited above.
 ---------------------------------------------------------------
  

 Cite this work as:
 Gaussian 16, Revision B.01,
 M. J. Frisch, G. W. Trucks, H. B. Schlegel, G. E. Scuseria, 
 M. A. Robb, J. R. Cheeseman, G. Scalmani, V. Barone, 
 G. A. Petersson, H. Nakatsuji, X. Li, M. Caricato, A. V. Marenich, 
 J. Bloino, B. G. Janesko, R. Gomperts, B. Mennucci, H. P. Hratchian, 
 J. V. Ortiz, A. F. Izmaylov, J. L. Sonnenberg, D. Williams-Young, 
 F. Ding, F. Lipparini, F. Egidi, J. Goings, B. Peng, A. Petrone, 
 T. Henderson, D. Ranasinghe, V. G. Zakrzewski, J. Gao, N. Rega, 
 G. Zheng, W. Liang, M. Hada, M. Ehara, K. Toyota, R. Fukuda, 
 J. Hasegawa, M. Ishida, T. Nakajima, Y. Honda, O. Kitao, H. Nakai, 
 T. Vreven, K. Throssell, J. A. Montgomery, Jr., J. E. Peralta, 
 F. Ogliaro, M. J. Bearpark, J. J. Heyd, E. N. Brothers, K. N. Kudin, 
 V. N. Staroverov, T. A. Keith, R. Kobayashi, J. Normand, 
 K. Raghavachari, A. P. Rendell, J. C. Burant, S. S. Iyengar, 
 J. Tomasi, M. Cossi, J. M. Millam, M. Klene, C. Adamo, R. Cammi, 
 J. W. Ochterski, R. L. Martin, K. Morokuma, O. Farkas, 
 J. B. Foresman, and D. J. Fox, Gaussian, Inc., Wallingford CT, 2016.
 
 ******************************************
 Gaussian 16:  ES64L-G16RevB.01 20-Dec-2017
                30-Sep-2023 
 ******************************************
 %chk=pyridine.chk
 %mem=500mw
 %nprocs=4
 Will use up to    4 processors via shared memory.
 ---------------------------------------
 # b3lyp/gen opt freq CPHF(Grid=OneStep)
 ---------------------------------------
 1/18=20,19=15,26=3,38=1/1,3;
 2/9=110,12=2,17=6,18=5,40=1/2;
 3/5=7,11=2,25=1,30=1,71=1,74=-5/1,2,3;
 4//1;
 5/5=2,38=5/2;
 6/7=2,8=2,9=2,10=2,28=1/1;
 7//1,2,3,16;
 1/18=20,19=15,26=3/3(2);
 2/9=110/2;
 99//99;
 2/9=110/2;
 3/5=7,6=1,11=2,25=1,30=1,71=1,74=-5,82=7/1,2,3;
 4/5=5,16=3,69=1/1;
 5/5=2,38=5/2;
 7//1,2,3,16;
 1/18=20,19=15,26=3/3(-5);
 2/9=110/2;
 6/7=2,8=2,9=2,10=2,19=2,28=1/1;
 99/9=1/99;
 -----------------------
 pyridine, B3LYP/pcseg-2
 -----------------------
 Symbolic Z-matrix:
 Charge =  0 Multiplicity = 1
 N                     0.        0.        1.41189 
 C                     0.        0.       -1.37897 
 C                     0.        1.13975   0.71973 
 C                     0.       -1.13975   0.71973 
 C                     0.        1.19367  -0.66971 
 C                     0.       -1.19367  -0.66971 
 H                     0.        0.       -2.46082 
 H                     0.        2.05341   1.30328 
 H                     0.       -2.05341   1.30328 
 H                     0.        2.14817  -1.17763 
 H                     0.       -2.14817  -1.17763 
 

 GradGradGradGradGradGradGradGradGradGradGradGradGradGradGradGradGradGrad
 Berny optimization.
 Initialization pass.
                           ----------------------------
                           !    Initial Parameters    !
                           ! (Angstroms and Degrees)  !
 --------------------------                            --------------------------
 ! Name  Definition              Value          Derivative Info.                !
 --------------------------------------------------------------------------------
 ! R1    R(1,3)                  1.3335         estimate D2E/DX2                !
 ! R2    R(1,4)                  1.3335         estimate D2E/DX2                !
 ! R3    R(2,5)                  1.3885         estimate D2E/DX2                !
 ! R4    R(2,6)                  1.3885         estimate D2E/DX2                !
 ! R5    R(2,7)                  1.0818         estimate D2E/DX2                !
 ! R6    R(3,5)                  1.3905         estimate D2E/DX2                !
 ! R7    R(3,8)                  1.0841         estimate D2E/DX2                !
 ! R8    R(4,6)                  1.3905         estimate D2E/DX2                !
 ! R9    R(4,9)                  1.0841         estimate D2E/DX2                !
 ! R10   R(5,10)                 1.0812         estimate D2E/DX2                !
 ! R11   R(6,11)                 1.0812         estimate D2E/DX2                !
 ! A1    A(3,1,4)              117.4604         estimate D2E/DX2                !
 ! A2    A(5,2,6)              118.5636         estimate D2E/DX2                !
 ! A3    A(5,2,7)              120.7182         estimate D2E/DX2                !
 ! A4    A(6,2,7)              120.7182         estimate D2E/DX2                !
 ! A5    A(1,3,5)              123.4918         estimate D2E/DX2                !
 ! A6    A(1,3,8)              116.1637         estimate D2E/DX2                !
 ! A7    A(5,3,8)              120.3445         estimate D2E/DX2                !
 ! A8    A(1,4,6)              123.4918         estimate D2E/DX2                !
 ! A9    A(1,4,9)              116.1637         estimate D2E/DX2                !
 ! A10   A(6,4,9)              120.3445         estimate D2E/DX2                !
 ! A11   A(2,5,3)              118.4962         estimate D2E/DX2                !
 ! A12   A(2,5,10)             121.263          estimate D2E/DX2                !
 ! A13   A(3,5,10)             120.2408         estimate D2E/DX2                !
 ! A14   A(2,6,4)              118.4962         estimate D2E/DX2                !
 ! A15   A(2,6,11)             121.263          estimate D2E/DX2                !
 ! A16   A(4,6,11)             120.2408         estimate D2E/DX2                !
 ! D1    D(4,1,3,5)              0.0            estimate D2E/DX2                !
 ! D2    D(4,1,3,8)            180.0            estimate D2E/DX2                !
 ! D3    D(3,1,4,6)              0.0            estimate D2E/DX2                !
 ! D4    D(3,1,4,9)            180.0            estimate D2E/DX2                !
 ! D5    D(6,2,5,3)              0.0            estimate D2E/DX2                !
 ! D6    D(6,2,5,10)           180.0            estimate D2E/DX2                !
 ! D7    D(7,2,5,3)            180.0            estimate D2E/DX2                !
 ! D8    D(7,2,5,10)             0.0            estimate D2E/DX2                !
 ! D9    D(5,2,6,4)              0.0            estimate D2E/DX2                !
 ! D10   D(5,2,6,11)           180.0            estimate D2E/DX2                !
 ! D11   D(7,2,6,4)            180.0            estimate D2E/DX2                !
 ! D12   D(7,2,6,11)             0.0            estimate D2E/DX2                !
 ! D13   D(1,3,5,2)              0.0            estimate D2E/DX2                !
 ! D14   D(1,3,5,10)           180.0            estimate D2E/DX2                !
 ! D15   D(8,3,5,2)            180.0            estimate D2E/DX2                !
 ! D16   D(8,3,5,10)             0.0            estimate D2E/DX2                !
 ! D17   D(1,4,6,2)              0.0            estimate D2E/DX2                !
 ! D18   D(1,4,6,11)           180.0            estimate D2E/DX2                !
 ! D19   D(9,4,6,2)            180.0            estimate D2E/DX2                !
 ! D20   D(9,4,6,11)             0.0            estimate D2E/DX2                !
 --------------------------------------------------------------------------------
 Trust Radius=3.00D-01 FncErr=1.00D-07 GrdErr=1.00D-06 EigMax=2.50D+02 EigMin=1.00D-04
 Number of steps in this run=     57 maximum allowed number of steps=    100.
 GradGradGradGradGradGradGradGradGradGradGradGradGradGradGradGradGradGrad

                          Input orientation:                          
 ---------------------------------------------------------------------
 Center     Atomic      Atomic             Coordinates (Angstroms)
 Number     Number       Type             X           Y           Z
 ---------------------------------------------------------------------
      1          7           0        0.000000    0.000000    1.411885
      2          6           0        0.000000    0.000000   -1.378973
      3          6           0        0.000000    1.139754    0.719726
      4          6           0        0.000000   -1.139754    0.719726
      5          6           0        0.000000    1.193665   -0.669713
      6          6           0        0.000000   -1.193665   -0.669713
      7          1           0        0.000000    0.000000   -2.460816
      8          1           0        0.000000    2.053411    1.303282
      9          1           0        0.000000   -2.053411    1.303282
     10          1           0        0.000000    2.148166   -1.177632
     11          1           0        0.000000   -2.148166   -1.177632
 ---------------------------------------------------------------------
                    Distance matrix (angstroms):
                    1          2          3          4          5
     1  N    0.000000
     2  C    2.790858   0.000000
     3  C    1.333463   2.388216   0.000000
     4  C    1.333463   2.388216   2.279508   0.000000
     5  C    2.399560   1.388483   1.390484   2.715766   0.000000
     6  C    2.399560   1.388483   2.715766   1.390484   2.387330
     7  H    3.872701   1.081843   3.378592   3.378592   2.152414
     8  H    2.056281   3.378015   1.084116   3.246050   2.152179
     9  H    2.056281   3.378015   3.246050   1.084116   3.799502
    10  H    3.364553   2.157581   2.148688   3.796101   1.081228
    11  H    3.364553   2.157581   3.796101   2.148688   3.380209
                    6          7          8          9         10
     6  C    0.000000
     7  H    2.152414   0.000000
     8  H    3.799502   4.287765   0.000000
     9  H    2.152179   4.287765   4.106822   0.000000
    10  H    3.380209   2.502235   2.482723   4.879363   0.000000
    11  H    1.081228   2.502235   4.879363   2.482723   4.296332
                   11
    11  H    0.000000
 Stoichiometry    C5H5N
 Framework group  C2V[C2(HCN),SGV(C4H4)]
 Deg. of freedom    10
 Full point group                 C2V     NOp   4
 Largest Abelian subgroup         C2V     NOp   4
 Largest concise Abelian subgroup C2      NOp   2
                         Standard orientation:                         
 ---------------------------------------------------------------------
 Center     Atomic      Atomic             Coordinates (Angstroms)
 Number     Number       Type             X           Y           Z
 ---------------------------------------------------------------------
      1          7           0        0.000000   -0.000000    1.411885
      2          6           0       -0.000000    0.000000   -1.378973
      3          6           0        0.000000    1.139754    0.719726
      4          6           0       -0.000000   -1.139754    0.719726
      5          6           0        0.000000    1.193665   -0.669713
      6          6           0       -0.000000   -1.193665   -0.669713
      7          1           0       -0.000000    0.000000   -2.460816
      8          1           0        0.000000    2.053411    1.303282
      9          1           0       -0.000000   -2.053411    1.303282
     10          1           0        0.000000    2.148166   -1.177632
     11          1           0       -0.000000   -2.148166   -1.177632
 ---------------------------------------------------------------------
 Rotational constants (GHZ):           6.0762064           5.8635276           2.9839864
 General basis read from cards:  (5D, 7F)
 There are   110 symmetry adapted cartesian basis functions of A1  symmetry.
 There are    37 symmetry adapted cartesian basis functions of A2  symmetry.
 There are    49 symmetry adapted cartesian basis functions of B1  symmetry.
 There are    89 symmetry adapted cartesian basis functions of B2  symmetry.
 There are    93 symmetry adapted basis functions of A1  symmetry.
 There are    35 symmetry adapted basis functions of A2  symmetry.
 There are    45 symmetry adapted basis functions of B1  symmetry.
 There are    77 symmetry adapted basis functions of B2  symmetry.
   250 basis functions,   396 primitive gaussians,   285 cartesian basis functions
    21 alpha electrons       21 beta electrons
       nuclear repulsion energy       206.7142539890 Hartrees.
 NAtoms=   11 NActive=   11 NUniq=    7 SFac= 2.47D+00 NAtFMM=   60 NAOKFM=F Big=F
 Integral buffers will be    131072 words long.
 Raffenetti 2 integral format.
 Two-electron integral symmetry is turned on.
 One-electron integrals computed using PRISM.
 NBasis=   250 RedAO= T EigKep=  5.82D-05  NBF=    93    35    45    77
 NBsUse=   250 1.00D-06 EigRej= -1.00D+00 NBFU=    93    35    45    77
 ExpMin= 7.42D-02 ExpMax= 1.02D+04 ExpMxC= 3.47D+02 IAcc=3 IRadAn=         5 AccDes= 0.00D+00
 Harris functional with IExCor=  402 and IRadAn=       5 diagonalized for initial guess.
 HarFok:  IExCor=  402 AccDes= 0.00D+00 IRadAn=         5 IDoV= 1 UseB2=F ITyADJ=14
 ICtDFT=  3500011 ScaDFX=  1.000000  1.000000  1.000000  1.000000
 FoFCou: FMM=F IPFlag=           0 FMFlag=      100000 FMFlg1=           0
         NFxFlg=           0 DoJE=T BraDBF=F KetDBF=T FulRan=T
         wScrn=  0.000000 ICntrl=       500 IOpCl=  0 I1Cent=   200000004 NGrid=           0
         NMat0=    1 NMatS0=      1 NMatT0=    0 NMatD0=    1 NMtDS0=    0 NMtDT0=    0
 Petite list used in FoFCou.
 Initial guess orbital symmetries:
       Occupied  (A1) (A1) (B2) (A1) (A1) (B2) (A1) (A1) (B2) (B2)
                 (A1) (A1) (B2) (A1) (B2) (A1) (B1) (B2) (B1) (A2)
                 (A1)
       Virtual   (B1) (A2) (A1) (B1) (B2) (A1) (B2) (A1) (A1) (A1)
                 (B1) (B2) (B2) (A1) (A2) (B1) (B2) (A1) (B2) (A1)
                 (A1) (A2) (B2) (B1) (A1) (B2) (A1) (B2) (A1) (A1)
                 (A1) (B2) (B2) (B1) (A1) (B2) (A1) (B2) (B1) (A1)
                 (B2) (A1) (B2) (A1) (A2) (A2) (B1) (A1) (A2) (B2)
                 (B1) (A1) (A1) (B2) (B2) (A1) (B1) (A1) (B2) (B1)
                 (A2) (A1) (B2) (A1) (B1) (A2) (B1) (A2) (B2) (A1)
                 (B1) (B2) (A1) (B2) (A2) (A1) (B1) (B2) (A1) (B1)
                 (B2) (A1) (B1) (A2) (B2) (A2) (A1) (B2) (A1) (A1)
                 (B2) (A1) (B1) (B2) (A1) (B2) (A1) (A2) (A1) (B2)
                 (A1) (B1) (B2) (B2) (A1) (A1) (B2) (A1) (A1) (B2)
                 (B2) (A2) (A1) (B1) (B2) (A1) (B1) (A2) (B2) (A2)
                 (B1) (B1) (A1) (B2) (B1) (A2) (A1) (B2) (A1) (B2)
                 (A1) (A2) (A1) (B2) (B1) (A1) (B2) (A1) (B2) (A1)
                 (B1) (A2) (B1) (A1) (A2) (B2) (B1) (A1) (A2) (B2)
                 (A1) (B1) (B2) (A2) (A1) (A1) (B2) (B2) (B1) (A2)
                 (A2) (A1) (A1) (B1) (B1) (B2) (A2) (B1) (A1) (A2)
                 (B2) (B1) (B1) (A2) (A2) (B2) (A1) (B2) (B1) (A1)
                 (B2) (A2) (A1) (B1) (A2) (B1) (A1) (B2) (B2) (A1)
                 (A1) (B2) (B1) (B2) (A1) (B2) (B1) (A2) (A1) (A1)
                 (B2) (A2) (B1) (A1) (B2) (B1) (B2) (A1) (A2) (A1)
                 (B2) (A2) (A1) (B2) (A1) (B2) (B1) (A1) (B2) (A1)
                 (A1) (B2) (A1) (B2) (A1) (A1) (B2) (B2) (A1)
 The electronic state of the initial guess is 1-A1.
 Requested convergence on RMS density matrix=1.00D-08 within 128 cycles.
 Requested convergence on MAX density matrix=1.00D-06.
 Requested convergence on             energy=1.00D-06.
 No special actions if energy rises.
 Integral accuracy reduced to 1.0D-05 until final iterations.
 Initial convergence to 1.0D-05 achieved.  Increase integral accuracy.
 SCF Done:  E(RB3LYP) =  -248.380597505     A.U. after   12 cycles
            NFock= 12  Conv=0.41D-08     -V/T= 2.0037

 **********************************************************************

            Population analysis using the SCF Density.

 **********************************************************************

 Orbital symmetries:
       Occupied  (A1) (B2) (A1) (A1) (B2) (A1) (A1) (A1) (B2) (B2)
                 (A1) (A1) (B2) (A1) (B2) (A1) (B1) (B2) (B1) (A2)
                 (A1)
       Virtual   (B1) (A2) (A1) (B2) (A1) (B2) (A1) (B1) (A1) (A1)
                 (B1) (B2) (A2) (B2) (A1) (B1) (B2) (A1) (A2) (A1)
                 (B2) (B1) (A1) (B2) (B2) (A1) (A1) (B2) (A1) (A1)
                 (A1) (B2) (B1) (B2) (A1) (A1) (B2) (B2) (B1) (A1)
                 (B2) (A1) (B2) (A1) (A2) (B1) (A2) (A1) (A2) (B2)
                 (B1) (A1) (A1) (B2) (A1) (B2) (B1) (A1) (B2) (B1)
                 (A1) (B2) (A2) (A1) (B1) (A2) (B1) (A2) (B2) (B1)
                 (A1) (B2) (A1) (B2) (A2) (A1) (B1) (B2) (A1) (B1)
                 (B2) (A1) (B1) (A2) (B2) (A2) (A1) (B2) (A1) (A1)
                 (B2) (A1) (B1) (B2) (A1) (B2) (A1) (A2) (A1) (B2)
                 (A1) (B1) (B2) (A1) (B2) (A1) (B2) (A1) (B2) (A1)
                 (B2) (A2) (A1) (B1) (B2) (A1) (B1) (A2) (B2) (A2)
                 (B1) (B1) (A1) (B2) (B1) (A2) (A1) (B2) (A1) (B2)
                 (A1) (A2) (A1) (B1) (B2) (A1) (B2) (A1) (B2) (A1)
                 (B1) (A2) (B1) (A1) (A2) (B2) (B1) (A1) (A2) (B2)
                 (A1) (B1) (A2) (B2) (A1) (A1) (B2) (B2) (B1) (A2)
                 (A2) (A1) (A1) (B1) (A2) (B2) (B1) (A1) (B1) (A2)
                 (B2) (B1) (A2) (B1) (B2) (A2) (A1) (B2) (B1) (A1)
                 (B2) (A2) (A1) (B1) (A2) (B1) (B2) (A1) (A1) (B2)
                 (B2) (A1) (B1) (A1) (B2) (B1) (B2) (A2) (A1) (A1)
                 (A2) (B2) (B1) (A1) (B2) (B1) (B2) (A1) (A2) (A1)
                 (B2) (A2) (A1) (B2) (A1) (B1) (B2) (A1) (B2) (A1)
                 (A1) (A1) (B2) (B2) (A1) (A1) (B2) (B2) (A1)
 The electronic state is 1-A1.
 Alpha  occ. eigenvalues --  -14.31446 -10.21198 -10.21198 -10.19850 -10.18854
 Alpha  occ. eigenvalues --  -10.18852  -0.94983  -0.81293  -0.76952  -0.63795
 Alpha  occ. eigenvalues --   -0.63617  -0.53825  -0.49044  -0.47775  -0.43786
 Alpha  occ. eigenvalues --   -0.41296  -0.40874  -0.37324  -0.29931  -0.27445
 Alpha  occ. eigenvalues --   -0.26415
 Alpha virt. eigenvalues --   -0.04007  -0.02713   0.01355   0.03608   0.04691
 Alpha virt. eigenvalues --    0.06912   0.08021   0.11819   0.12070   0.14936
 Alpha virt. eigenvalues --    0.15806   0.16085   0.19219   0.19412   0.19887
 Alpha virt. eigenvalues --    0.20449   0.22546   0.25854   0.27166   0.28219
 Alpha virt. eigenvalues --    0.28830   0.29184   0.29853   0.30616   0.31597
 Alpha virt. eigenvalues --    0.32692   0.34554   0.35228   0.37943   0.40746
 Alpha virt. eigenvalues --    0.42229   0.43820   0.44784   0.45597   0.49176
 Alpha virt. eigenvalues --    0.53193   0.56003   0.58883   0.59819   0.61678
 Alpha virt. eigenvalues --    0.61820   0.63597   0.65366   0.69264   0.76033
 Alpha virt. eigenvalues --    0.78461   0.80115   0.83287   0.86604   0.89046
 Alpha virt. eigenvalues --    0.92922   0.95127   0.97630   0.99201   1.00456
 Alpha virt. eigenvalues --    1.00726   1.04796   1.06942   1.08446   1.11794
 Alpha virt. eigenvalues --    1.12717   1.15969   1.16472   1.19486   1.22444
 Alpha virt. eigenvalues --    1.23943   1.26171   1.29501   1.31853   1.33807
 Alpha virt. eigenvalues --    1.34292   1.35266   1.38888   1.40671   1.44035
 Alpha virt. eigenvalues --    1.46525   1.50187   1.52478   1.56680   1.57713
 Alpha virt. eigenvalues --    1.60902   1.62954   1.63923   1.64621   1.66026
 Alpha virt. eigenvalues --    1.67315   1.69647   1.72754   1.74901   1.75807
 Alpha virt. eigenvalues --    1.77439   1.84752   1.87789   1.89338   1.93076
 Alpha virt. eigenvalues --    1.95561   1.95617   2.04265   2.12026   2.14030
 Alpha virt. eigenvalues --    2.19135   2.21159   2.22044   2.22174   2.23832
 Alpha virt. eigenvalues --    2.32039   2.33976   2.40865   2.64182   2.64456
 Alpha virt. eigenvalues --    2.73698   2.85930   2.86363   2.92870   3.00119
 Alpha virt. eigenvalues --    3.10122   3.14743   3.19129   3.22837   3.22962
 Alpha virt. eigenvalues --    3.25190   3.27558   3.32797   3.36552   3.39401
 Alpha virt. eigenvalues --    3.43905   3.45207   3.47725   3.53444   3.53859
 Alpha virt. eigenvalues --    3.63183   3.66697   3.70396   3.71870   3.72137
 Alpha virt. eigenvalues --    3.74426   3.82592   3.84140   3.86498   3.91286
 Alpha virt. eigenvalues --    3.92785   3.95222   3.99745   4.00618   4.00933
 Alpha virt. eigenvalues --    4.05496   4.06363   4.08715   4.08731   4.13393
 Alpha virt. eigenvalues --    4.13828   4.15882   4.17605   4.17673   4.20085
 Alpha virt. eigenvalues --    4.21142   4.22643   4.24112   4.24932   4.29260
 Alpha virt. eigenvalues --    4.30657   4.31475   4.33032   4.33038   4.38236
 Alpha virt. eigenvalues --    4.39194   4.41092   4.42579   4.42691   4.43704
 Alpha virt. eigenvalues --    4.46320   4.47352   4.54077   4.54632   4.56443
 Alpha virt. eigenvalues --    4.57160   4.60283   4.60905   4.61965   4.69669
 Alpha virt. eigenvalues --    4.74567   4.76629   4.81129   4.83371   4.88975
 Alpha virt. eigenvalues --    4.92494   4.99085   4.99789   5.07302   5.08269
 Alpha virt. eigenvalues --    5.12590   5.12756   5.13057   5.16188   5.17371
 Alpha virt. eigenvalues --    5.25033   5.25451   5.31375   5.32227   5.33671
 Alpha virt. eigenvalues --    5.33963   5.34611   5.41318   5.43951   5.46103
 Alpha virt. eigenvalues --    5.46456   5.49785   5.50705   5.56589   5.63389
 Alpha virt. eigenvalues --    5.63480   5.66541   5.69289   5.78808   5.83464
 Alpha virt. eigenvalues --    5.83990   5.84854   5.92936   5.93929   6.08881
 Alpha virt. eigenvalues --    6.14802   6.28327   6.29884   6.39627   6.46656
 Alpha virt. eigenvalues --    6.66672   6.82401   7.13493   8.31799
          Condensed to atoms (all electrons):
               1          2          3          4          5          6
     1  N    6.503485  -0.032383   0.517150   0.517150  -0.040915  -0.040915
     2  C   -0.032383   4.788790  -0.066996  -0.066996   0.467125   0.467125
     3  C    0.517150  -0.066996   4.706549  -0.116617   0.408892  -0.057861
     4  C    0.517150  -0.066996  -0.116617   4.706549  -0.057861   0.408892
     5  C   -0.040915   0.467125   0.408892  -0.057861   5.028091  -0.017667
     6  C   -0.040915   0.467125  -0.057861   0.408892  -0.017667   5.028091
     7  H   -0.002079   0.455722   0.005862   0.005862  -0.043957  -0.043957
     8  H   -0.042347   0.010363   0.481571   0.006903  -0.099198  -0.006117
     9  H   -0.042347   0.010363   0.006903   0.481571  -0.006117  -0.099198
    10  H    0.006435  -0.044843  -0.027144   0.000715   0.427367   0.008309
    11  H    0.006435  -0.044843   0.000715  -0.027144   0.008309   0.427367
               7          8          9         10         11
     1  N   -0.002079  -0.042347  -0.042347   0.006435   0.006435
     2  C    0.455722   0.010363   0.010363  -0.044843  -0.044843
     3  C    0.005862   0.481571   0.006903  -0.027144   0.000715
     4  C    0.005862   0.006903   0.481571   0.000715  -0.027144
     5  C   -0.043957  -0.099198  -0.006117   0.427367   0.008309
     6  C   -0.043957  -0.006117  -0.099198   0.008309   0.427367
     7  H    0.608111  -0.000343  -0.000343  -0.008694  -0.008694
     8  H   -0.000343   0.617098   0.000067  -0.004010   0.000261
     9  H   -0.000343   0.000067   0.617098   0.000261  -0.004010
    10  H   -0.008694  -0.004010   0.000261   0.614074  -0.000106
    11  H   -0.008694   0.000261  -0.004010  -0.000106   0.614074
 Mulliken charges:
               1
     1  N   -0.349669
     2  C    0.056573
     3  C    0.140976
     4  C    0.140976
     5  C   -0.074071
     6  C   -0.074071
     7  H    0.032510
     8  H    0.035752
     9  H    0.035752
    10  H    0.027636
    11  H    0.027636
 Sum of Mulliken charges =  -0.00000
 Mulliken charges with hydrogens summed into heavy atoms:
               1
     1  N   -0.349669
     2  C    0.089083
     3  C    0.176728
     4  C    0.176728
     5  C   -0.046435
     6  C   -0.046435
 Electronic spatial extent (au):  <R**2>=            433.2350
 Charge=             -0.0000 electrons
 Dipole moment (field-independent basis, Debye):
    X=             -0.0000    Y=              0.0000    Z=             -2.2774  Tot=              2.2774
 Quadrupole moment (field-independent basis, Debye-Ang):
   XX=            -37.9746   YY=            -29.7879   ZZ=            -36.8585
   XY=              0.0000   XZ=             -0.0000   YZ=              0.0000
 Traceless Quadrupole moment (field-independent basis, Debye-Ang):
   XX=             -3.1009   YY=              5.0858   ZZ=             -1.9849
   XY=              0.0000   XZ=             -0.0000   YZ=              0.0000
 Octapole moment (field-independent basis, Debye-Ang**2):
  XXX=              0.0000  YYY=              0.0000  ZZZ=            -15.5786  XYY=              0.0000
  XXY=             -0.0000  XXZ=              1.3640  XZZ=              0.0000  YZZ=              0.0000
  YYZ=              2.0398  XYZ=              0.0000
 Hexadecapole moment (field-independent basis, Debye-Ang**3):
 XXXX=            -44.1826 YYYY=           -255.4704 ZZZZ=           -288.9552 XXXY=             -0.0000
 XXXZ=             -0.0000 YYYX=             -0.0000 YYYZ=             -0.0000 ZZZX=             -0.0000
 ZZZY=             -0.0000 XXYY=            -59.6715 XXZZ=            -58.0172 YYZZ=            -81.6424
 XXYZ=             -0.0000 YYXZ=             -0.0000 ZZXY=             -0.0000
 N-N= 2.067142539890D+02 E-N=-9.905389884739D+02  KE= 2.474616191434D+02
 Symmetry A1   KE= 1.613954647337D+02
 Symmetry A2   KE= 2.288481122706D+00
 Symmetry B1   KE= 4.736183556544D+00
 Symmetry B2   KE= 7.904148973051D+01
 Calling FoFJK, ICntrl=      2127 FMM=F ISym2X=1 I1Cent= 0 IOpClX= 0 NMat=1 NMatS=1 NMatT=0.
 ***** Axes restored to original set *****
 -------------------------------------------------------------------
 Center     Atomic                   Forces (Hartrees/Bohr)
 Number     Number              X              Y              Z
 -------------------------------------------------------------------
      1        7          -0.000000000    0.000000000   -0.000157505
      2        6          -0.000000000    0.000000000    0.000015540
      3        6           0.000000000   -0.000086070    0.000141632
      4        6           0.000000000    0.000086070    0.000141632
      5        6           0.000000000    0.000004133   -0.000043390
      6        6           0.000000000   -0.000004133   -0.000043390
      7        1           0.000000000   -0.000000000   -0.000006555
      8        1           0.000000000    0.000018071   -0.000011485
      9        1           0.000000000   -0.000018071   -0.000011485
     10        1           0.000000000    0.000017126   -0.000012498
     11        1           0.000000000   -0.000017126   -0.000012498
 -------------------------------------------------------------------
 Cartesian Forces:  Max     0.000157505 RMS     0.000050944

 GradGradGradGradGradGradGradGradGradGradGradGradGradGradGradGradGradGrad
 Berny optimization.
 FormGI is forming the generalized inverse of G from B-inverse, IUseBI=4.
 Internal  Forces:  Max     0.000088402 RMS     0.000024557
 Search for a local minimum.
 Step number   1 out of a maximum of   57
 All quantities printed in internal units (Hartrees-Bohrs-Radians)
 Mixed Optimization -- En-DIIS/RFO-DIIS
 Second derivative matrix not updated -- first step.
 ITU=  0
     Eigenvalues ---    0.02226   0.02228   0.02234   0.02241   0.02264
     Eigenvalues ---    0.02317   0.02343   0.02496   0.16000   0.16000
     Eigenvalues ---    0.16000   0.16000   0.16000   0.22000   0.22000
     Eigenvalues ---    0.23197   0.35502   0.35502   0.35773   0.35846
     Eigenvalues ---    0.35846   0.42987   0.45186   0.47235   0.47515
     Eigenvalues ---    0.56439   0.57801
 RFO step:  Lambda=-6.84637514D-08 EMin= 2.22579031D-02
 Linear search not attempted -- first point.
 Iteration  1 RMS(Cart)=  0.00004562 RMS(Int)=  0.00000000
 Iteration  2 RMS(Cart)=  0.00000000 RMS(Int)=  0.00000000
 ClnCor:  largest displacement from symmetrization is 3.33D-13 for atom    11.
 Variable       Old X    -DE/DX   Delta X   Delta X   Delta X     New X
                                 (Linear)    (Quad)   (Total)
    R1        2.51988  -0.00009   0.00000  -0.00016  -0.00016   2.51972
    R2        2.51988  -0.00009   0.00000  -0.00016  -0.00016   2.51972
    R3        2.62385   0.00001   0.00000   0.00002   0.00002   2.62387
    R4        2.62385   0.00001   0.00000   0.00002   0.00002   2.62387
    R5        2.04439   0.00001   0.00000   0.00002   0.00002   2.04441
    R6        2.62763   0.00005   0.00000   0.00011   0.00011   2.62774
    R7        2.04868   0.00001   0.00000   0.00003   0.00003   2.04871
    R8        2.62763   0.00005   0.00000   0.00011   0.00011   2.62774
    R9        2.04868   0.00001   0.00000   0.00003   0.00003   2.04871
   R10        2.04322   0.00002   0.00000   0.00006   0.00006   2.04328
   R11        2.04322   0.00002   0.00000   0.00006   0.00006   2.04328
    A1        2.05007   0.00006   0.00000   0.00019   0.00019   2.05026
    A2        2.06932   0.00000   0.00000   0.00005   0.00005   2.06937
    A3        2.10693  -0.00000   0.00000  -0.00002  -0.00002   2.10691
    A4        2.10693  -0.00000   0.00000  -0.00002  -0.00002   2.10691
    A5        2.15534  -0.00001   0.00000  -0.00007  -0.00007   2.15527
    A6        2.02744   0.00003   0.00000   0.00016   0.00016   2.02760
    A7        2.10041  -0.00001   0.00000  -0.00009  -0.00009   2.10032
    A8        2.15534  -0.00001   0.00000  -0.00007  -0.00007   2.15527
    A9        2.02744   0.00003   0.00000   0.00016   0.00016   2.02760
   A10        2.10041  -0.00001   0.00000  -0.00009  -0.00009   2.10032
   A11        2.06815  -0.00002   0.00000  -0.00005  -0.00005   2.06810
   A12        2.11644   0.00000   0.00000   0.00000   0.00000   2.11644
   A13        2.09860   0.00001   0.00000   0.00004   0.00004   2.09864
   A14        2.06815  -0.00002   0.00000  -0.00005  -0.00005   2.06810
   A15        2.11644   0.00000   0.00000   0.00000   0.00000   2.11644
   A16        2.09860   0.00001   0.00000   0.00004   0.00004   2.09864
    D1       -0.00000   0.00000   0.00000   0.00000   0.00000   0.00000
    D2        3.14159   0.00000   0.00000   0.00000   0.00000   3.14159
    D3        0.00000  -0.00000   0.00000  -0.00000   0.00000   0.00000
    D4        3.14159  -0.00000   0.00000  -0.00000   0.00000   3.14159
    D5        0.00000  -0.00000   0.00000  -0.00000   0.00000   0.00000
    D6        3.14159  -0.00000   0.00000  -0.00000   0.00000   3.14159
    D7        3.14159   0.00000   0.00000   0.00000   0.00000   3.14159
    D8       -0.00000  -0.00000   0.00000   0.00000   0.00000   0.00000
    D9       -0.00000   0.00000   0.00000   0.00000   0.00000   0.00000
   D10        3.14159   0.00000   0.00000   0.00000   0.00000   3.14159
   D11        3.14159   0.00000   0.00000   0.00000   0.00000   3.14159
   D12       -0.00000   0.00000   0.00000   0.00000   0.00000   0.00000
   D13       -0.00000  -0.00000   0.00000  -0.00000   0.00000   0.00000
   D14        3.14159  -0.00000   0.00000   0.00000   0.00000   3.14159
   D15        3.14159  -0.00000   0.00000  -0.00000   0.00000   3.14159
   D16       -0.00000  -0.00000   0.00000  -0.00000   0.00000   0.00000
   D17       -0.00000  -0.00000   0.00000  -0.00000   0.00000   0.00000
   D18        3.14159  -0.00000   0.00000  -0.00000   0.00000   3.14159
   D19        3.14159   0.00000   0.00000   0.00000   0.00000   3.14159
   D20       -0.00000   0.00000   0.00000   0.00000   0.00000   0.00000
         Item               Value     Threshold  Converged?
 Maximum Force            0.000088     0.000450     YES
 RMS     Force            0.000025     0.000300     YES
 Maximum Displacement     0.000176     0.001800     YES
 RMS     Displacement     0.000046     0.001200     YES
 Predicted change in Energy=-3.423202D-08
 Optimization completed.
    -- Stationary point found.
                           ----------------------------
                           !   Optimized Parameters   !
                           ! (Angstroms and Degrees)  !
 --------------------------                            --------------------------
 ! Name  Definition              Value          Derivative Info.                !
 --------------------------------------------------------------------------------
 ! R1    R(1,3)                  1.3335         -DE/DX =   -0.0001              !
 ! R2    R(1,4)                  1.3335         -DE/DX =   -0.0001              !
 ! R3    R(2,5)                  1.3885         -DE/DX =    0.0                 !
 ! R4    R(2,6)                  1.3885         -DE/DX =    0.0                 !
 ! R5    R(2,7)                  1.0818         -DE/DX =    0.0                 !
 ! R6    R(3,5)                  1.3905         -DE/DX =    0.0001              !
 ! R7    R(3,8)                  1.0841         -DE/DX =    0.0                 !
 ! R8    R(4,6)                  1.3905         -DE/DX =    0.0001              !
 ! R9    R(4,9)                  1.0841         -DE/DX =    0.0                 !
 ! R10   R(5,10)                 1.0812         -DE/DX =    0.0                 !
 ! R11   R(6,11)                 1.0812         -DE/DX =    0.0                 !
 ! A1    A(3,1,4)              117.4604         -DE/DX =    0.0001              !
 ! A2    A(5,2,6)              118.5636         -DE/DX =    0.0                 !
 ! A3    A(5,2,7)              120.7182         -DE/DX =    0.0                 !
 ! A4    A(6,2,7)              120.7182         -DE/DX =    0.0                 !
 ! A5    A(1,3,5)              123.4918         -DE/DX =    0.0                 !
 ! A6    A(1,3,8)              116.1637         -DE/DX =    0.0                 !
 ! A7    A(5,3,8)              120.3445         -DE/DX =    0.0                 !
 ! A8    A(1,4,6)              123.4918         -DE/DX =    0.0                 !
 ! A9    A(1,4,9)              116.1637         -DE/DX =    0.0                 !
 ! A10   A(6,4,9)              120.3445         -DE/DX =    0.0                 !
 ! A11   A(2,5,3)              118.4962         -DE/DX =    0.0                 !
 ! A12   A(2,5,10)             121.263          -DE/DX =    0.0                 !
 ! A13   A(3,5,10)             120.2408         -DE/DX =    0.0                 !
 ! A14   A(2,6,4)              118.4962         -DE/DX =    0.0                 !
 ! A15   A(2,6,11)             121.263          -DE/DX =    0.0                 !
 ! A16   A(4,6,11)             120.2408         -DE/DX =    0.0                 !
 ! D1    D(4,1,3,5)              0.0            -DE/DX =    0.0                 !
 ! D2    D(4,1,3,8)            180.0            -DE/DX =    0.0                 !
 ! D3    D(3,1,4,6)              0.0            -DE/DX =    0.0                 !
 ! D4    D(3,1,4,9)            180.0            -DE/DX =    0.0                 !
 ! D5    D(6,2,5,3)              0.0            -DE/DX =    0.0                 !
 ! D6    D(6,2,5,10)           180.0            -DE/DX =    0.0                 !
 ! D7    D(7,2,5,3)            180.0            -DE/DX =    0.0                 !
 ! D8    D(7,2,5,10)             0.0            -DE/DX =    0.0                 !
 ! D9    D(5,2,6,4)              0.0            -DE/DX =    0.0                 !
 ! D10   D(5,2,6,11)           180.0            -DE/DX =    0.0                 !
 ! D11   D(7,2,6,4)            180.0            -DE/DX =    0.0                 !
 ! D12   D(7,2,6,11)             0.0            -DE/DX =    0.0                 !
 ! D13   D(1,3,5,2)              0.0            -DE/DX =    0.0                 !
 ! D14   D(1,3,5,10)           180.0            -DE/DX =    0.0                 !
 ! D15   D(8,3,5,2)            180.0            -DE/DX =    0.0                 !
 ! D16   D(8,3,5,10)             0.0            -DE/DX =    0.0                 !
 ! D17   D(1,4,6,2)              0.0            -DE/DX =    0.0                 !
 ! D18   D(1,4,6,11)           180.0            -DE/DX =    0.0                 !
 ! D19   D(9,4,6,2)            180.0            -DE/DX =    0.0                 !
 ! D20   D(9,4,6,11)             0.0            -DE/DX =    0.0                 !
 --------------------------------------------------------------------------------
 GradGradGradGradGradGradGradGradGradGradGradGradGradGradGradGradGradGrad

                          Input orientation:                          
 ---------------------------------------------------------------------
 Center     Atomic      Atomic             Coordinates (Angstroms)
 Number     Number       Type             X           Y           Z
 ---------------------------------------------------------------------
      1          7           0        0.000000    0.000000    1.411885
      2          6           0       -0.000000   -0.000000   -1.378973
      3          6           0        0.000000    1.139754    0.719726
      4          6           0       -0.000000   -1.139754    0.719726
      5          6           0        0.000000    1.193665   -0.669713
      6          6           0       -0.000000   -1.193665   -0.669713
      7          1           0       -0.000000   -0.000000   -2.460816
      8          1           0        0.000000    2.053411    1.303282
      9          1           0       -0.000000   -2.053411    1.303282
     10          1           0        0.000000    2.148166   -1.177632
     11          1           0       -0.000000   -2.148166   -1.177632
 ---------------------------------------------------------------------
                    Distance matrix (angstroms):
                    1          2          3          4          5
     1  N    0.000000
     2  C    2.790858   0.000000
     3  C    1.333463   2.388216   0.000000
     4  C    1.333463   2.388216   2.279508   0.000000
     5  C    2.399560   1.388483   1.390484   2.715766   0.000000
     6  C    2.399560   1.388483   2.715766   1.390484   2.387330
     7  H    3.872701   1.081843   3.378592   3.378592   2.152414
     8  H    2.056281   3.378015   1.084116   3.246050   2.152179
     9  H    2.056281   3.378015   3.246050   1.084116   3.799502
    10  H    3.364553   2.157581   2.148688   3.796101   1.081228
    11  H    3.364553   2.157581   3.796101   2.148688   3.380209
                    6          7          8          9         10
     6  C    0.000000
     7  H    2.152414   0.000000
     8  H    3.799502   4.287765   0.000000
     9  H    2.152179   4.287765   4.106822   0.000000
    10  H    3.380209   2.502235   2.482723   4.879363   0.000000
    11  H    1.081228   2.502235   4.879363   2.482723   4.296332
                   11
    11  H    0.000000
 Stoichiometry    C5H5N
 Framework group  C2V[C2(HCN),SGV(C4H4)]
 Deg. of freedom    10
 Full point group                 C2V     NOp   4
 Largest Abelian subgroup         C2V     NOp   4
 Largest concise Abelian subgroup C2      NOp   2
                         Standard orientation:                         
 ---------------------------------------------------------------------
 Center     Atomic      Atomic             Coordinates (Angstroms)
 Number     Number       Type             X           Y           Z
 ---------------------------------------------------------------------
      1          7           0        0.000000   -0.000000    1.411885
      2          6           0       -0.000000    0.000000   -1.378973
      3          6           0        0.000000    1.139754    0.719726
      4          6           0       -0.000000   -1.139754    0.719726
      5          6           0       -0.000000    1.193665   -0.669713
      6          6           0       -0.000000   -1.193665   -0.669713
      7          1           0       -0.000000    0.000000   -2.460816
      8          1           0        0.000000    2.053411    1.303282
      9          1           0       -0.000000   -2.053411    1.303282
     10          1           0       -0.000000    2.148166   -1.177632
     11          1           0       -0.000000   -2.148166   -1.177632
 ---------------------------------------------------------------------
 Rotational constants (GHZ):           6.0762064           5.8635276           2.9839864
 1\1\GINC-GAMBA\FOpt\RB3LYP\Gen\C5H5N1\IRIKURA\30-Sep-2023\0\\# b3lyp/g
 en opt freq CPHF(Grid=OneStep)\\pyridine, B3LYP/pcseg-2\\0,1\N,0.,0.,1
 .411885\C,0.,0.,-1.378973\C,0.,1.139754,0.719726\C,0.,-1.139754,0.7197
 26\C,0.,1.193665,-0.669713\C,0.,-1.193665,-0.669713\H,0.,0.,-2.460816\
 H,0.,2.053411,1.303282\H,0.,-2.053411,1.303282\H,0.,2.148166,-1.177632
 \H,0.,-2.148166,-1.177632\\Version=ES64L-G16RevB.01\State=1-A1\HF=-248
 .3805975\RMSD=4.146e-09\RMSF=5.094e-05\Dipole=0.,0.,-0.8960085\Quadrup
 ole=-2.3054485,3.7811432,-1.4756947,0.,0.,0.\PG=C02V [C2(H1C1N1),SGV(C
 4H4)]\\@


 Money is a good servant but a bad master.
                        -- French Proverb
 Job cpu time:       0 days  0 hours  2 minutes 34.4 seconds.
 Elapsed time:       0 days  0 hours  0 minutes 38.7 seconds.
 File lengths (MBytes):  RWF=     40 Int=      0 D2E=      0 Chk=      5 Scr=      1
 Normal termination of Gaussian 16 at Sat Sep 30 00:35:13 2023.
 Link1:  Proceeding to internal job step number  2.
 ------------------------------------------------------------------
 #N Geom=AllCheck Guess=TCheck SCRF=Check GenChk RB3LYP/ChkBas Freq
 ------------------------------------------------------------------
 1/10=4,29=7,30=1,38=1,40=1/1,3;
 2/12=2,40=1/2;
 3/5=7,6=2,11=2,14=-4,25=1,30=1,67=1,70=2,71=2,74=-5,82=7,116=1,140=1/1,2,3;
 4/5=101/1;
 5/5=2,38=6,98=1/2;
 8/6=4,10=90,11=11/1;
 11/6=1,8=1,9=11,15=111,16=1/1,2,10;
 10/6=1,60=-420/2;
 6/7=2,8=2,9=2,10=2,28=1/1;
 7/8=1,10=1,25=1/1,2,3,16;
 1/10=4,30=1/3;
 99//99;
 Structure from the checkpoint file:  "pyridine.chk"
 -----------------------
 pyridine, B3LYP/pcseg-2
 -----------------------
 Charge =  0 Multiplicity = 1
 Redundant internal coordinates found in file.  (old form).
 N,0,0.,0.,1.411885
 C,0,0.,0.,-1.378973
 C,0,0.,1.139754,0.719726
 C,0,0.,-1.139754,0.719726
 C,0,0.,1.193665,-0.669713
 C,0,0.,-1.193665,-0.669713
 H,0,0.,0.,-2.460816
 H,0,0.,2.053411,1.303282
 H,0,0.,-2.053411,1.303282
 H,0,0.,2.148166,-1.177632
 H,0,0.,-2.148166,-1.177632
 Recover connectivity data from disk.

 GradGradGradGradGradGradGradGradGradGradGradGradGradGradGradGradGradGrad
 Berny optimization.
 Initialization pass.
                           ----------------------------
                           !    Initial Parameters    !
                           ! (Angstroms and Degrees)  !
 --------------------------                            --------------------------
 ! Name  Definition              Value          Derivative Info.                !
 --------------------------------------------------------------------------------
 ! R1    R(1,3)                  1.3335         calculate D2E/DX2 analytically  !
 ! R2    R(1,4)                  1.3335         calculate D2E/DX2 analytically  !
 ! R3    R(2,5)                  1.3885         calculate D2E/DX2 analytically  !
 ! R4    R(2,6)                  1.3885         calculate D2E/DX2 analytically  !
 ! R5    R(2,7)                  1.0818         calculate D2E/DX2 analytically  !
 ! R6    R(3,5)                  1.3905         calculate D2E/DX2 analytically  !
 ! R7    R(3,8)                  1.0841         calculate D2E/DX2 analytically  !
 ! R8    R(4,6)                  1.3905         calculate D2E/DX2 analytically  !
 ! R9    R(4,9)                  1.0841         calculate D2E/DX2 analytically  !
 ! R10   R(5,10)                 1.0812         calculate D2E/DX2 analytically  !
 ! R11   R(6,11)                 1.0812         calculate D2E/DX2 analytically  !
 ! A1    A(3,1,4)              117.4604         calculate D2E/DX2 analytically  !
 ! A2    A(5,2,6)              118.5636         calculate D2E/DX2 analytically  !
 ! A3    A(5,2,7)              120.7182         calculate D2E/DX2 analytically  !
 ! A4    A(6,2,7)              120.7182         calculate D2E/DX2 analytically  !
 ! A5    A(1,3,5)              123.4918         calculate D2E/DX2 analytically  !
 ! A6    A(1,3,8)              116.1637         calculate D2E/DX2 analytically  !
 ! A7    A(5,3,8)              120.3445         calculate D2E/DX2 analytically  !
 ! A8    A(1,4,6)              123.4918         calculate D2E/DX2 analytically  !
 ! A9    A(1,4,9)              116.1637         calculate D2E/DX2 analytically  !
 ! A10   A(6,4,9)              120.3445         calculate D2E/DX2 analytically  !
 ! A11   A(2,5,3)              118.4962         calculate D2E/DX2 analytically  !
 ! A12   A(2,5,10)             121.263          calculate D2E/DX2 analytically  !
 ! A13   A(3,5,10)             120.2408         calculate D2E/DX2 analytically  !
 ! A14   A(2,6,4)              118.4962         calculate D2E/DX2 analytically  !
 ! A15   A(2,6,11)             121.263          calculate D2E/DX2 analytically  !
 ! A16   A(4,6,11)             120.2408         calculate D2E/DX2 analytically  !
 ! D1    D(4,1,3,5)              0.0            calculate D2E/DX2 analytically  !
 ! D2    D(4,1,3,8)            180.0            calculate D2E/DX2 analytically  !
 ! D3    D(3,1,4,6)              0.0            calculate D2E/DX2 analytically  !
 ! D4    D(3,1,4,9)            180.0            calculate D2E/DX2 analytically  !
 ! D5    D(6,2,5,3)              0.0            calculate D2E/DX2 analytically  !
 ! D6    D(6,2,5,10)           180.0            calculate D2E/DX2 analytically  !
 ! D7    D(7,2,5,3)            180.0            calculate D2E/DX2 analytically  !
 ! D8    D(7,2,5,10)             0.0            calculate D2E/DX2 analytically  !
 ! D9    D(5,2,6,4)              0.0            calculate D2E/DX2 analytically  !
 ! D10   D(5,2,6,11)           180.0            calculate D2E/DX2 analytically  !
 ! D11   D(7,2,6,4)            180.0            calculate D2E/DX2 analytically  !
 ! D12   D(7,2,6,11)             0.0            calculate D2E/DX2 analytically  !
 ! D13   D(1,3,5,2)              0.0            calculate D2E/DX2 analytically  !
 ! D14   D(1,3,5,10)           180.0            calculate D2E/DX2 analytically  !
 ! D15   D(8,3,5,2)            180.0            calculate D2E/DX2 analytically  !
 ! D16   D(8,3,5,10)             0.0            calculate D2E/DX2 analytically  !
 ! D17   D(1,4,6,2)              0.0            calculate D2E/DX2 analytically  !
 ! D18   D(1,4,6,11)           180.0            calculate D2E/DX2 analytically  !
 ! D19   D(9,4,6,2)            180.0            calculate D2E/DX2 analytically  !
 ! D20   D(9,4,6,11)             0.0            calculate D2E/DX2 analytically  !
 --------------------------------------------------------------------------------
 Trust Radius=3.00D-01 FncErr=1.00D-07 GrdErr=1.00D-07 EigMax=2.50D+02 EigMin=1.00D-04
 Number of steps in this run=      2 maximum allowed number of steps=      2.
 GradGradGradGradGradGradGradGradGradGradGradGradGradGradGradGradGradGrad

                          Input orientation:                          
 ---------------------------------------------------------------------
 Center     Atomic      Atomic             Coordinates (Angstroms)
 Number     Number       Type             X           Y           Z
 ---------------------------------------------------------------------
      1          7           0        0.000000   -0.000000    1.411885
      2          6           0       -0.000000    0.000000   -1.378973
      3          6           0        0.000000    1.139754    0.719726
      4          6           0       -0.000000   -1.139754    0.719726
      5          6           0        0.000000    1.193665   -0.669713
      6          6           0       -0.000000   -1.193665   -0.669713
      7          1           0       -0.000000    0.000000   -2.460816
      8          1           0        0.000000    2.053411    1.303282
      9          1           0       -0.000000   -2.053411    1.303282
     10          1           0        0.000000    2.148166   -1.177632
     11          1           0       -0.000000   -2.148166   -1.177632
 ---------------------------------------------------------------------
                    Distance matrix (angstroms):
                    1          2          3          4          5
     1  N    0.000000
     2  C    2.790858   0.000000
     3  C    1.333463   2.388216   0.000000
     4  C    1.333463   2.388216   2.279508   0.000000
     5  C    2.399560   1.388483   1.390484   2.715766   0.000000
     6  C    2.399560   1.388483   2.715766   1.390484   2.387330
     7  H    3.872701   1.081843   3.378592   3.378592   2.152414
     8  H    2.056281   3.378015   1.084116   3.246050   2.152179
     9  H    2.056281   3.378015   3.246050   1.084116   3.799502
    10  H    3.364553   2.157581   2.148688   3.796101   1.081228
    11  H    3.364553   2.157581   3.796101   2.148688   3.380209
                    6          7          8          9         10
     6  C    0.000000
     7  H    2.152414   0.000000
     8  H    3.799502   4.287765   0.000000
     9  H    2.152179   4.287765   4.106822   0.000000
    10  H    3.380209   2.502235   2.482723   4.879363   0.000000
    11  H    1.081228   2.502235   4.879363   2.482723   4.296332
                   11
    11  H    0.000000
 Stoichiometry    C5H5N
 Framework group  C2V[C2(HCN),SGV(C4H4)]
 Deg. of freedom    10
 Full point group                 C2V     NOp   4
 Largest Abelian subgroup         C2V     NOp   4
 Largest concise Abelian subgroup C2      NOp   2
                         Standard orientation:                         
 ---------------------------------------------------------------------
 Center     Atomic      Atomic             Coordinates (Angstroms)
 Number     Number       Type             X           Y           Z
 ---------------------------------------------------------------------
      1          7           0       -0.000000    0.000000    1.411885
      2          6           0        0.000000    0.000000   -1.378973
      3          6           0       -0.000000    1.139754    0.719726
      4          6           0       -0.000000   -1.139754    0.719726
      5          6           0        0.000000    1.193665   -0.669713
      6          6           0       -0.000000   -1.193665   -0.669713
      7          1           0        0.000000    0.000000   -2.460816
      8          1           0       -0.000000    2.053411    1.303282
      9          1           0       -0.000000   -2.053411    1.303282
     10          1           0        0.000000    2.148166   -1.177632
     11          1           0       -0.000000   -2.148166   -1.177632
 ---------------------------------------------------------------------
 Rotational constants (GHZ):           6.0762064           5.8635276           2.9839864
 Basis read from chk: "pyridine.chk" (5D, 7F)
 There are   110 symmetry adapted cartesian basis functions of A1  symmetry.
 There are    37 symmetry adapted cartesian basis functions of A2  symmetry.
 There are    49 symmetry adapted cartesian basis functions of B1  symmetry.
 There are    89 symmetry adapted cartesian basis functions of B2  symmetry.
 There are    93 symmetry adapted basis functions of A1  symmetry.
 There are    35 symmetry adapted basis functions of A2  symmetry.
 There are    45 symmetry adapted basis functions of B1  symmetry.
 There are    77 symmetry adapted basis functions of B2  symmetry.
   250 basis functions,   396 primitive gaussians,   285 cartesian basis functions
    21 alpha electrons       21 beta electrons
       nuclear repulsion energy       206.7142539890 Hartrees.
 NAtoms=   11 NActive=   11 NUniq=    7 SFac= 2.47D+00 NAtFMM=   60 NAOKFM=F Big=F
 Integral buffers will be    131072 words long.
 Raffenetti 2 integral format.
 Two-electron integral symmetry is turned on.
 One-electron integrals computed using PRISM.
 NBasis=   250 RedAO= T EigKep=  5.82D-05  NBF=    93    35    45    77
 NBsUse=   250 1.00D-06 EigRej= -1.00D+00 NBFU=    93    35    45    77
 Initial guess from the checkpoint file:  "pyridine.chk"
 B after Tr=    -0.000000   -0.000000   -0.000000
         Rot=    1.000000    0.000000   -0.000000   -0.000000 Ang=   0.00 deg.
 Initial guess orbital symmetries:
       Occupied  (A1) (B2) (A1) (A1) (B2) (A1) (A1) (A1) (B2) (B2)
                 (A1) (A1) (B2) (A1) (B2) (A1) (B1) (B2) (B1) (A2)
                 (A1)
       Virtual   (B1) (A2) (A1) (B2) (A1) (B2) (A1) (B1) (A1) (A1)
                 (B1) (B2) (A2) (B2) (A1) (B1) (B2) (A1) (A2) (A1)
                 (B2) (B1) (A1) (B2) (B2) (A1) (A1) (B2) (A1) (A1)
                 (A1) (B2) (B1) (B2) (A1) (A1) (B2) (B2) (B1) (A1)
                 (B2) (A1) (B2) (A1) (A2) (B1) (A2) (A1) (A2) (B2)
                 (B1) (A1) (A1) (B2) (A1) (B2) (B1) (A1) (B2) (B1)
                 (A1) (B2) (A2) (A1) (B1) (A2) (B1) (A2) (B2) (B1)
                 (A1) (B2) (A1) (B2) (A2) (A1) (B1) (B2) (A1) (B1)
                 (B2) (A1) (B1) (A2) (B2) (A2) (A1) (B2) (A1) (A1)
                 (B2) (A1) (B1) (B2) (A1) (B2) (A1) (A2) (A1) (B2)
                 (A1) (B1) (B2) (A1) (B2) (A1) (B2) (A1) (B2) (A1)
                 (B2) (A2) (A1) (B1) (B2) (A1) (B1) (A2) (B2) (A2)
                 (B1) (B1) (A1) (B2) (B1) (A2) (A1) (B2) (A1) (B2)
                 (A1) (A2) (A1) (B1) (B2) (A1) (B2) (A1) (B2) (A1)
                 (B1) (A2) (B1) (A1) (A2) (B2) (B1) (A1) (A2) (B2)
                 (A1) (B1) (A2) (B2) (A1) (A1) (B2) (B2) (B1) (A2)
                 (A2) (A1) (A1) (B1) (A2) (B2) (B1) (A1) (B1) (A2)
                 (B2) (B1) (A2) (B1) (B2) (A2) (A1) (B2) (B1) (A1)
                 (B2) (A2) (A1) (B1) (A2) (B1) (B2) (A1) (A1) (B2)
                 (B2) (A1) (B1) (A1) (B2) (B1) (B2) (A2) (A1) (A1)
                 (A2) (B2) (B1) (A1) (B2) (B1) (B2) (A1) (A2) (A1)
                 (B2) (A2) (A1) (B2) (A1) (B1) (B2) (A1) (B2) (A1)
                 (A1) (A1) (B2) (B2) (A1) (A1) (B2) (B2) (A1)
 Requested convergence on RMS density matrix=1.00D-08 within 128 cycles.
 Requested convergence on MAX density matrix=1.00D-06.
 Requested convergence on             energy=1.00D-06.
 No special actions if energy rises.
 SCF Done:  E(RB3LYP) =  -248.380597505     A.U. after    1 cycles
            NFock=  1  Conv=0.26D-08     -V/T= 2.0037
 DoSCS=F DFT=T ScalE2(SS,OS)=  1.000000  1.000000
 Range of M.O.s used for correlation:     1   250
 NBasis=   250 NAE=    21 NBE=    21 NFC=     0 NFV=     0
 NROrb=    250 NOA=    21 NOB=    21 NVA=   229 NVB=   229

 **** Warning!!: The largest alpha MO coefficient is  0.23619299D+02

 Symmetrizing basis deriv contribution to polar:
 IMax=3 JMax=2 DiffMx= 0.00D+00
 G2DrvN: will do    12 centers at a time, making    1 passes.
 Calling FoFCou, ICntrl=  3107 FMM=F I1Cent=   0 AccDes= 0.00D+00.
 End of G2Drv F.D. properties file   721 does not exist.
 End of G2Drv F.D. properties file   722 does not exist.
 End of G2Drv F.D. properties file   788 does not exist.
          IDoAtm=11111111111
          Differentiating once with respect to electric field.
                with respect to dipole field.
          Differentiating once with respect to nuclear coordinates.
 CalDSu exits because no D1Ps are significant.
          There are    24 degrees of freedom in the 1st order CPHF.  IDoFFX=4 NUNeed=    24.
     24 vectors produced by pass  0 Test12= 2.00D-14 4.17D-09 XBig12= 8.86D+01 6.30D+00.
 AX will form    24 AO Fock derivatives at one time.
     24 vectors produced by pass  1 Test12= 2.00D-14 4.17D-09 XBig12= 2.83D+01 1.77D+00.
     24 vectors produced by pass  2 Test12= 2.00D-14 4.17D-09 XBig12= 1.29D+00 2.26D-01.
     24 vectors produced by pass  3 Test12= 2.00D-14 4.17D-09 XBig12= 7.09D-03 1.59D-02.
     24 vectors produced by pass  4 Test12= 2.00D-14 4.17D-09 XBig12= 4.61D-05 9.49D-04.
     24 vectors produced by pass  5 Test12= 2.00D-14 4.17D-09 XBig12= 1.05D-07 5.37D-05.
     13 vectors produced by pass  6 Test12= 2.00D-14 4.17D-09 XBig12= 1.28D-10 2.00D-06.
      3 vectors produced by pass  7 Test12= 2.00D-14 4.17D-09 XBig12= 1.30D-13 4.96D-08.
 InvSVY:  IOpt=1 It=  1 EMax= 3.72D-15
 Solved reduced A of dimension   160 with    24 vectors.
 Isotropic polarizability for W=    0.000000       60.40 Bohr**3.
 End of Minotr F.D. properties file   721 does not exist.
 End of Minotr F.D. properties file   722 does not exist.
 End of Minotr F.D. properties file   788 does not exist.

 **********************************************************************

            Population analysis using the SCF Density.

 **********************************************************************

 Orbital symmetries:
       Occupied  (A1) (B2) (A1) (A1) (B2) (A1) (A1) (A1) (B2) (B2)
                 (A1) (A1) (B2) (A1) (B2) (A1) (B1) (B2) (B1) (A2)
                 (A1)
       Virtual   (B1) (A2) (A1) (B2) (A1) (B2) (A1) (B1) (A1) (A1)
                 (B1) (B2) (A2) (B2) (A1) (B1) (B2) (A1) (A2) (A1)
                 (B2) (B1) (A1) (B2) (B2) (A1) (A1) (B2) (A1) (A1)
                 (A1) (B2) (B1) (B2) (A1) (A1) (B2) (B2) (B1) (A1)
                 (B2) (A1) (B2) (A1) (A2) (B1) (A2) (A1) (A2) (B2)
                 (B1) (A1) (A1) (B2) (A1) (B2) (B1) (A1) (B2) (B1)
                 (A1) (B2) (A2) (A1) (B1) (A2) (B1) (A2) (B2) (B1)
                 (A1) (B2) (A1) (B2) (A2) (A1) (B1) (B2) (A1) (B1)
                 (B2) (A1) (B1) (A2) (B2) (A2) (A1) (B2) (A1) (A1)
                 (B2) (A1) (B1) (B2) (A1) (B2) (A1) (A2) (A1) (B2)
                 (A1) (B1) (B2) (A1) (B2) (A1) (B2) (A1) (B2) (A1)
                 (B2) (A2) (A1) (B1) (B2) (A1) (B1) (A2) (B2) (A2)
                 (B1) (B1) (A1) (B2) (B1) (A2) (A1) (B2) (A1) (B2)
                 (A1) (A2) (A1) (B1) (B2) (A1) (B2) (A1) (B2) (A1)
                 (B1) (A2) (B1) (A1) (A2) (B2) (B1) (A1) (A2) (B2)
                 (A1) (B1) (A2) (B2) (A1) (A1) (B2) (B2) (B1) (A2)
                 (A2) (A1) (A1) (B1) (A2) (B2) (B1) (A1) (B1) (A2)
                 (B2) (B1) (A2) (B1) (B2) (A2) (A1) (B2) (B1) (A1)
                 (B2) (A2) (A1) (B1) (A2) (B1) (B2) (A1) (A1) (B2)
                 (B2) (A1) (B1) (A1) (B2) (B1) (B2) (A2) (A1) (A1)
                 (A2) (B2) (B1) (A1) (B2) (B1) (B2) (A1) (A2) (A1)
                 (B2) (A2) (A1) (B2) (A1) (B1) (B2) (A1) (B2) (A1)
                 (A1) (A1) (B2) (B2) (A1) (A1) (B2) (B2) (A1)
 The electronic state is 1-A1.
 Alpha  occ. eigenvalues --  -14.31446 -10.21198 -10.21198 -10.19850 -10.18854
 Alpha  occ. eigenvalues --  -10.18852  -0.94983  -0.81293  -0.76952  -0.63795
 Alpha  occ. eigenvalues --   -0.63617  -0.53825  -0.49044  -0.47775  -0.43786
 Alpha  occ. eigenvalues --   -0.41296  -0.40874  -0.37324  -0.29931  -0.27445
 Alpha  occ. eigenvalues --   -0.26415
 Alpha virt. eigenvalues --   -0.04007  -0.02713   0.01355   0.03608   0.04691
 Alpha virt. eigenvalues --    0.06912   0.08021   0.11819   0.12070   0.14936
 Alpha virt. eigenvalues --    0.15806   0.16085   0.19219   0.19412   0.19887
 Alpha virt. eigenvalues --    0.20449   0.22546   0.25854   0.27166   0.28219
 Alpha virt. eigenvalues --    0.28830   0.29184   0.29853   0.30616   0.31597
 Alpha virt. eigenvalues --    0.32692   0.34554   0.35228   0.37943   0.40746
 Alpha virt. eigenvalues --    0.42229   0.43820   0.44784   0.45597   0.49176
 Alpha virt. eigenvalues --    0.53193   0.56003   0.58883   0.59819   0.61678
 Alpha virt. eigenvalues --    0.61820   0.63597   0.65366   0.69264   0.76033
 Alpha virt. eigenvalues --    0.78461   0.80115   0.83287   0.86604   0.89046
 Alpha virt. eigenvalues --    0.92922   0.95127   0.97630   0.99201   1.00456
 Alpha virt. eigenvalues --    1.00726   1.04796   1.06942   1.08446   1.11794
 Alpha virt. eigenvalues --    1.12717   1.15969   1.16472   1.19486   1.22444
 Alpha virt. eigenvalues --    1.23943   1.26171   1.29501   1.31853   1.33807
 Alpha virt. eigenvalues --    1.34292   1.35266   1.38888   1.40671   1.44035
 Alpha virt. eigenvalues --    1.46525   1.50187   1.52478   1.56680   1.57713
 Alpha virt. eigenvalues --    1.60902   1.62954   1.63923   1.64621   1.66025
 Alpha virt. eigenvalues --    1.67315   1.69647   1.72754   1.74901   1.75807
 Alpha virt. eigenvalues --    1.77439   1.84752   1.87789   1.89338   1.93076
 Alpha virt. eigenvalues --    1.95561   1.95617   2.04265   2.12026   2.14030
 Alpha virt. eigenvalues --    2.19135   2.21159   2.22044   2.22174   2.23832
 Alpha virt. eigenvalues --    2.32039   2.33976   2.40865   2.64182   2.64456
 Alpha virt. eigenvalues --    2.73698   2.85930   2.86363   2.92870   3.00119
 Alpha virt. eigenvalues --    3.10122   3.14743   3.19129   3.22837   3.22962
 Alpha virt. eigenvalues --    3.25190   3.27558   3.32797   3.36552   3.39401
 Alpha virt. eigenvalues --    3.43905   3.45207   3.47725   3.53444   3.53859
 Alpha virt. eigenvalues --    3.63183   3.66697   3.70396   3.71870   3.72137
 Alpha virt. eigenvalues --    3.74426   3.82592   3.84140   3.86498   3.91286
 Alpha virt. eigenvalues --    3.92785   3.95222   3.99745   4.00618   4.00933
 Alpha virt. eigenvalues --    4.05496   4.06363   4.08715   4.08731   4.13393
 Alpha virt. eigenvalues --    4.13828   4.15882   4.17605   4.17673   4.20085
 Alpha virt. eigenvalues --    4.21142   4.22643   4.24112   4.24932   4.29260
 Alpha virt. eigenvalues --    4.30657   4.31475   4.33032   4.33038   4.38236
 Alpha virt. eigenvalues --    4.39194   4.41092   4.42579   4.42691   4.43704
 Alpha virt. eigenvalues --    4.46320   4.47352   4.54077   4.54632   4.56443
[...]
                 (B2) (A1) (B2) (B2) (A2) (A1) (B1) (B1) (A2) (B1)
                 (B1) (B1) (A2) (A2) (A1) (B1) (A1) (A2) (B2) (B2)
                 (A1) (A1) (B2) (A1) (B2) (A1) (B2) (A1) (B2) (A1)
                 (A1) (B2) (B2) (A1) (A1) (B2) (B2) (A1) (B1) (A2)
                 (A1) (A1) (B2) (B1) (A2) (B1) (A2) (B1) (B2) (A1)
                 (B2) (A1) (A1) (B2) (A1) (B2) (A1) (B2) (A1) (B2)
                 (A1) (B2) (A1) (B1) (A1) (B2) (A1)
 The electronic state is 1-A1.
 Alpha  occ. eigenvalues --  -15.56320 -11.27339 -11.27337 -11.25853 -11.24069
 Alpha  occ. eigenvalues --  -11.24063  -1.26010  -1.09073  -1.03503  -0.85930
 Alpha  occ. eigenvalues --   -0.85763  -0.72302  -0.66281  -0.65410  -0.59943
 Alpha  occ. eigenvalues --   -0.57717  -0.54370  -0.52145  -0.41814  -0.38526
 Alpha  occ. eigenvalues --   -0.34873
 Alpha virt. eigenvalues --    0.04437   0.04997   0.05614   0.06917   0.07219
 Alpha virt. eigenvalues --    0.07264   0.08853   0.09813   0.10061   0.10544
 Alpha virt. eigenvalues --    0.10575   0.10576   0.11159   0.12577   0.13676
 Alpha virt. eigenvalues --    0.14456   0.14818   0.15721   0.19295   0.19766
 Alpha virt. eigenvalues --    0.20059   0.20637   0.20837   0.21688   0.22360
 Alpha virt. eigenvalues --    0.25007   0.27057   0.28929   0.28953   0.30024
 Alpha virt. eigenvalues --    0.30450   0.31439   0.36135   0.36598   0.40082
 Alpha virt. eigenvalues --    0.40540   0.40960   0.43470   0.43565   0.46911
 Alpha virt. eigenvalues --    0.48065   0.48774   0.49231   0.49578   0.50544
 Alpha virt. eigenvalues --    0.50714   0.52519   0.53333   0.54015   0.54480
 Alpha virt. eigenvalues --    0.55822   0.56252   0.56769   0.57829   0.58568
 Alpha virt. eigenvalues --    0.60729   0.61511   0.62139   0.63670   0.64707
 Alpha virt. eigenvalues --    0.66538   0.67801   0.69050   0.70791   0.71557
 Alpha virt. eigenvalues --    0.71727   0.72207   0.75094   0.75359   0.76340
 Alpha virt. eigenvalues --    0.77893   0.79944   0.80590   0.85882   0.87726
 Alpha virt. eigenvalues --    0.87746   0.88564   0.88722   0.98732   0.98912
 Alpha virt. eigenvalues --    0.99369   1.00166   1.00273   1.01548   1.02954
 Alpha virt. eigenvalues --    1.04227   1.05811   1.06517   1.08894   1.10695
 Alpha virt. eigenvalues --    1.13356   1.19902   1.20781   1.22444   1.24300
 Alpha virt. eigenvalues --    1.25195   1.28282   1.30815   1.30823   1.33973
 Alpha virt. eigenvalues --    1.35354   1.36880   1.37802   1.42365   1.43112
 Alpha virt. eigenvalues --    1.44928   1.45372   1.47459   1.49162   1.51482
 Alpha virt. eigenvalues --    1.51983   1.52751   1.52812   1.54967   1.56376
 Alpha virt. eigenvalues --    1.56750   1.58951   1.59522   1.61010   1.67816
 Alpha virt. eigenvalues --    1.68900   1.68943   1.71805   1.72138   1.74060
 Alpha virt. eigenvalues --    1.74204   1.75645   1.77797   1.78379   1.80781
 Alpha virt. eigenvalues --    1.81585   1.83018   1.85527   1.87028   1.87828
 Alpha virt. eigenvalues --    1.88501   1.91223   1.92244   1.93434   1.93574
 Alpha virt. eigenvalues --    1.94639   1.94918   1.96338   1.96401   1.99516
 Alpha virt. eigenvalues --    2.00921   2.01313   2.02328   2.02589   2.02639
 Alpha virt. eigenvalues --    2.08434   2.08664   2.11213   2.13106   2.13722
 Alpha virt. eigenvalues --    2.17601   2.18969   2.21580   2.22214   2.22802
 Alpha virt. eigenvalues --    2.22985   2.25599   2.26452   2.26892   2.28241
 Alpha virt. eigenvalues --    2.28333   2.31515   2.33483   2.35316   2.39421
 Alpha virt. eigenvalues --    2.39968   2.43352   2.45730   2.49119   2.51286
 Alpha virt. eigenvalues --    2.52124   2.52714   2.53681   2.56404   2.56609
 Alpha virt. eigenvalues --    2.56654   2.59607   2.66001   2.66179   2.66752
 Alpha virt. eigenvalues --    2.66936   2.70519   2.73016   2.74468   2.75163
 Alpha virt. eigenvalues --    2.79030   2.79592   2.79701   2.83385   2.85719
 Alpha virt. eigenvalues --    2.85950   2.88760   2.91422   2.97703   2.97766
 Alpha virt. eigenvalues --    2.99834   3.00593   3.04608   3.05368   3.08766
 Alpha virt. eigenvalues --    3.09558   3.14306   3.16498   3.17528   3.20789
 Alpha virt. eigenvalues --    3.24963   3.30515   3.32064   3.33741   3.37041
 Alpha virt. eigenvalues --    3.43414   3.46666   3.50458   3.51081   3.53703
 Alpha virt. eigenvalues --    3.57612   3.58958   3.64873   3.65862   3.67973
 Alpha virt. eigenvalues --    3.69082   3.69353   3.72069   3.73211   3.73951
 Alpha virt. eigenvalues --    3.76398   3.77274   3.78404   3.84439   3.87070
 Alpha virt. eigenvalues --    3.90760   3.90997   3.91548   3.95929   4.05645
 Alpha virt. eigenvalues --    4.11415   4.11471   4.22696   4.31293   4.31925
 Alpha virt. eigenvalues --    4.33369   4.38079   4.39357   4.43928   4.44068
 Alpha virt. eigenvalues --    4.46480   4.50131   4.56598   4.58697   4.63187
 Alpha virt. eigenvalues --    4.64448   4.64656   4.75767   4.79368   4.83231
 Alpha virt. eigenvalues --    4.84318   4.86435   4.88939   4.90631   4.90932
 Alpha virt. eigenvalues --    5.01050   5.07703   5.14027   5.14306   5.17665
 Alpha virt. eigenvalues --    5.19568   5.24834   5.28419   5.30695   5.34585
 Alpha virt. eigenvalues --    5.35862   5.36500   5.43055   5.48486   5.49592
 Alpha virt. eigenvalues --    5.56085   5.56492   5.57606   5.66175   5.67302
 Alpha virt. eigenvalues --    5.74911   5.75220   5.87816   5.90072   5.91624
 Alpha virt. eigenvalues --    5.92686   6.03349   6.11151   6.13661   6.15616
 Alpha virt. eigenvalues --    6.19897   6.23424   6.26768   6.30645   6.31459
 Alpha virt. eigenvalues --    6.37057   6.38909   6.49552   6.53260   6.54954
 Alpha virt. eigenvalues --    6.55551   6.55836   6.62404   6.66566   6.79595
 Alpha virt. eigenvalues --    6.90183   6.91409   7.06777   7.12844   7.15936
 Alpha virt. eigenvalues --    7.31850   7.32425   7.32829   7.38478   7.47137
 Alpha virt. eigenvalues --    7.49611   7.57944   7.68100   7.91586   8.00490
 Alpha virt. eigenvalues --    8.03955   8.05783   8.16252   8.16682   8.28231
 Alpha virt. eigenvalues --    8.29617   8.46848   8.48729   8.50411   8.54642
 Alpha virt. eigenvalues --    8.55011   8.58620   8.71808   8.76280   8.87065
 Alpha virt. eigenvalues --    8.91525   9.05553   9.06570   9.11914   9.26677
 Alpha virt. eigenvalues --    9.34162   9.36682   9.38537   9.58342   9.61251
 Alpha virt. eigenvalues --    9.64618   9.76705   9.88248   9.93157   9.96110
 Alpha virt. eigenvalues --   10.17539  10.24669  10.28604  10.65787  10.86891
 Alpha virt. eigenvalues --   10.95967  11.85167  12.02069  20.53559  20.72899
 Alpha virt. eigenvalues --   20.82009  21.06599  21.26486  21.43008  21.53840
 Alpha virt. eigenvalues --   21.73326  21.73446  22.00447  22.15757  22.30703
 Alpha virt. eigenvalues --   22.51104  22.74203  22.98959  23.52265  23.64121
 Alpha virt. eigenvalues --   23.65064  23.74405  23.94749  29.86829  30.38823
 Alpha virt. eigenvalues --   30.84359  33.31073
          Condensed to atoms (all electrons):
               1          2          3          4          5          6
     1  N    7.058781  -0.005064   0.397074   0.397074  -0.073061  -0.073061
     2  C   -0.005064   5.038676  -0.074645  -0.074645   0.415020   0.415020
     3  C    0.397074  -0.074645   4.739527  -0.092576   0.437834   0.008140
     4  C    0.397074  -0.074645  -0.092576   4.739527   0.008140   0.437834
     5  C   -0.073061   0.415020   0.437834   0.008140   5.103425  -0.085805
     6  C   -0.073061   0.415020   0.008140   0.437834  -0.085805   5.103425
     7  H   -0.001012   0.441013   0.002459   0.002459  -0.021960  -0.021960
     8  H   -0.066019   0.010860   0.475492   0.007868  -0.046856  -0.006631
     9  H   -0.066019   0.010860   0.007868   0.475492  -0.006631  -0.046856
    10  H    0.000804  -0.017080  -0.014544  -0.000442   0.425350   0.002164
    11  H    0.000804  -0.017080  -0.000442  -0.014544   0.002164   0.425350
               7          8          9         10         11
     1  N   -0.001012  -0.066019  -0.066019   0.000804   0.000804
     2  C    0.441013   0.010860   0.010860  -0.017080  -0.017080
     3  C    0.002459   0.475492   0.007868  -0.014544  -0.000442
     4  C    0.002459   0.007868   0.475492  -0.000442  -0.014544
     5  C   -0.021960  -0.046856  -0.006631   0.425350   0.002164
     6  C   -0.021960  -0.006631  -0.046856   0.002164   0.425350
     7  H    0.457205  -0.000109  -0.000109  -0.005357  -0.005357
     8  H   -0.000109   0.461667   0.000025  -0.002827   0.000061
     9  H   -0.000109   0.000025   0.461667   0.000061  -0.002827
    10  H   -0.005357  -0.002827   0.000061   0.454353  -0.000081
    11  H   -0.005357   0.000061  -0.002827  -0.000081   0.454353
          Atomic-Atomic Spin Densities.
               1          2          3          4          5          6
     1  N    0.000000   0.000000   0.000000   0.000000   0.000000   0.000000
     2  C    0.000000   0.000000   0.000000   0.000000   0.000000   0.000000
     3  C    0.000000   0.000000   0.000000   0.000000   0.000000   0.000000
     4  C    0.000000   0.000000   0.000000   0.000000   0.000000   0.000000
     5  C    0.000000   0.000000   0.000000   0.000000   0.000000   0.000000
     6  C    0.000000   0.000000   0.000000   0.000000   0.000000   0.000000
     7  H    0.000000   0.000000   0.000000   0.000000   0.000000   0.000000
     8  H    0.000000   0.000000   0.000000   0.000000   0.000000   0.000000
     9  H    0.000000   0.000000   0.000000   0.000000   0.000000   0.000000
    10  H    0.000000   0.000000   0.000000   0.000000   0.000000   0.000000
    11  H    0.000000   0.000000   0.000000   0.000000   0.000000   0.000000
               7          8          9         10         11
     1  N    0.000000   0.000000   0.000000   0.000000   0.000000
     2  C    0.000000   0.000000   0.000000   0.000000   0.000000
     3  C    0.000000   0.000000   0.000000   0.000000   0.000000
     4  C    0.000000   0.000000   0.000000   0.000000   0.000000
     5  C    0.000000   0.000000   0.000000   0.000000   0.000000
     6  C    0.000000   0.000000   0.000000   0.000000   0.000000
     7  H    0.000000   0.000000   0.000000   0.000000   0.000000
     8  H    0.000000   0.000000   0.000000   0.000000   0.000000
     9  H    0.000000   0.000000   0.000000   0.000000   0.000000
    10  H    0.000000   0.000000   0.000000   0.000000   0.000000
    11  H    0.000000   0.000000   0.000000   0.000000   0.000000
 Mulliken charges and spin densities:
               1          2
     1  N   -0.570303   0.000000
     2  C   -0.142936   0.000000
     3  C    0.113812   0.000000
     4  C    0.113812   0.000000
     5  C   -0.157619   0.000000
     6  C   -0.157619   0.000000
     7  H    0.152727   0.000000
     8  H    0.166467   0.000000
     9  H    0.166467   0.000000
    10  H    0.157596   0.000000
    11  H    0.157596   0.000000
 Sum of Mulliken charges =  -0.00000   0.00000
 Mulliken charges and spin densities with hydrogens summed into heavy atoms:
               1          2
     1  N   -0.570303   0.000000
     2  C    0.009791   0.000000
     3  C    0.280279   0.000000
     4  C    0.280279   0.000000
     5  C   -0.000023   0.000000
     6  C   -0.000023   0.000000
 Electronic spatial extent (au):  <R**2>=            433.3270
 Charge=              0.0000 electrons
 Dipole moment (field-independent basis, Debye):
    X=             -0.0000    Y=              0.0000    Z=             -2.3093  Tot=              2.3093
 Quadrupole moment (field-independent basis, Debye-Ang):
   XX=            -38.7630   YY=            -29.3727   ZZ=            -36.6090
   XY=              0.0000   XZ=             -0.0000   YZ=             -0.0000
 Traceless Quadrupole moment (field-independent basis, Debye-Ang):
   XX=             -3.8481   YY=              5.5422   ZZ=             -1.6941
   XY=              0.0000   XZ=             -0.0000   YZ=             -0.0000
 Octapole moment (field-independent basis, Debye-Ang**2):
  XXX=              0.0000  YYY=             -0.0000  ZZZ=            -16.4587  XYY=              0.0000
  XXY=              0.0000  XXZ=              1.4912  XZZ=              0.0000  YZZ=             -0.0000
  YYZ=              2.8175  XYZ=              0.0000
 Hexadecapole moment (field-independent basis, Debye-Ang**3):
 XXXX=            -45.6483 YYYY=           -249.6942 ZZZZ=           -284.6113 XXXY=             -0.0000
 XXXZ=             -0.0000 YYYX=             -0.0000 YYYZ=             -0.0000 ZZZX=             -0.0000
 ZZZY=              0.0000 XXYY=            -60.2700 XXZZ=            -58.3264 YYZZ=            -79.5102
 XXYZ=             -0.0000 YYXZ=             -0.0000 ZZXY=             -0.0000
 N-N= 2.067142539890D+02 E-N=-9.887501579266D+02  KE= 2.465091790067D+02
 Symmetry A1   KE= 1.612255325424D+02
 Symmetry A2   KE= 2.091442321886D+00
 Symmetry B1   KE= 4.379450145751D+00
 Symmetry B2   KE= 7.881275399662D+01
 Symmetry A1   SP= 0.000000000000D+00
 Symmetry A2   SP= 0.000000000000D+00
 Symmetry B1   SP= 0.000000000000D+00
 Symmetry B2   SP= 0.000000000000D+00
                          Isotropic Fermi Contact Couplings
        Atom                 a.u.       MegaHertz       Gauss      10(-4) cm-1
     1  N(14)              0.00000       0.00000       0.00000       0.00000
     2  C(13)              0.00000       0.00000       0.00000       0.00000
     3  C(13)              0.00000       0.00000       0.00000       0.00000
     4  C(13)              0.00000       0.00000       0.00000       0.00000
     5  C(13)              0.00000       0.00000       0.00000       0.00000
     6  C(13)              0.00000       0.00000       0.00000       0.00000
     7  H(1)               0.00000       0.00000       0.00000       0.00000
     8  H(1)               0.00000       0.00000       0.00000       0.00000
     9  H(1)               0.00000       0.00000       0.00000       0.00000
    10  H(1)               0.00000       0.00000       0.00000       0.00000
    11  H(1)               0.00000       0.00000       0.00000       0.00000
 --------------------------------------------------------
       Center         ----  Spin Dipole Couplings  ----
                      3XX-RR        3YY-RR        3ZZ-RR
 --------------------------------------------------------
     1   Atom        0.000000      0.000000      0.000000
     2   Atom        0.000000      0.000000      0.000000
     3   Atom        0.000000      0.000000      0.000000
     4   Atom        0.000000      0.000000      0.000000
     5   Atom        0.000000      0.000000      0.000000
     6   Atom        0.000000      0.000000      0.000000
     7   Atom        0.000000      0.000000      0.000000
     8   Atom        0.000000      0.000000      0.000000
     9   Atom        0.000000      0.000000      0.000000
    10   Atom        0.000000      0.000000      0.000000
    11   Atom        0.000000      0.000000      0.000000
 --------------------------------------------------------
                        XY            XZ            YZ
 --------------------------------------------------------
     1   Atom        0.000000      0.000000      0.000000
     2   Atom        0.000000      0.000000      0.000000
     3   Atom        0.000000      0.000000      0.000000
     4   Atom        0.000000      0.000000      0.000000
     5   Atom        0.000000      0.000000      0.000000
     6   Atom        0.000000      0.000000      0.000000
     7   Atom        0.000000      0.000000      0.000000
     8   Atom        0.000000      0.000000      0.000000
     9   Atom        0.000000      0.000000      0.000000
    10   Atom        0.000000      0.000000      0.000000
    11   Atom        0.000000      0.000000      0.000000
 --------------------------------------------------------


 ---------------------------------------------------------------------------------
              Anisotropic Spin Dipole Couplings in Principal Axis System
 ---------------------------------------------------------------------------------

       Atom             a.u.   MegaHertz   Gauss  10(-4) cm-1        Axes

              Baa     0.0000     0.000     0.000     0.000  1.0000  0.0000  0.0000
     1 N(14)  Bbb     0.0000     0.000     0.000     0.000 -0.0000  1.0000  0.0000
              Bcc     0.0000     0.000     0.000     0.000  0.0000  0.0000  1.0000
 
              Baa     0.0000     0.000     0.000     0.000  1.0000  0.0000  0.0000
     2 C(13)  Bbb     0.0000     0.000     0.000     0.000 -0.0000  1.0000  0.0000
              Bcc     0.0000     0.000     0.000     0.000  0.0000  0.0000  1.0000
 
              Baa     0.0000     0.000     0.000     0.000  1.0000  0.0000  0.0000
     3 C(13)  Bbb     0.0000     0.000     0.000     0.000 -0.0000  1.0000  0.0000
              Bcc     0.0000     0.000     0.000     0.000  0.0000  0.0000  1.0000
 
              Baa     0.0000     0.000     0.000     0.000  1.0000  0.0000  0.0000
     4 C(13)  Bbb     0.0000     0.000     0.000     0.000 -0.0000  1.0000  0.0000
              Bcc     0.0000     0.000     0.000     0.000  0.0000  0.0000  1.0000
 
              Baa     0.0000     0.000     0.000     0.000  1.0000  0.0000  0.0000
     5 C(13)  Bbb     0.0000     0.000     0.000     0.000 -0.0000  1.0000  0.0000
              Bcc     0.0000     0.000     0.000     0.000  0.0000  0.0000  1.0000
 
              Baa     0.0000     0.000     0.000     0.000  1.0000  0.0000  0.0000
     6 C(13)  Bbb     0.0000     0.000     0.000     0.000 -0.0000  1.0000  0.0000
              Bcc     0.0000     0.000     0.000     0.000  0.0000  0.0000  1.0000
 
              Baa     0.0000     0.000     0.000     0.000  1.0000  0.0000  0.0000
     7 H(1)   Bbb     0.0000     0.000     0.000     0.000 -0.0000  1.0000  0.0000
              Bcc     0.0000     0.000     0.000     0.000  0.0000  0.0000  1.0000
 
              Baa     0.0000     0.000     0.000     0.000  1.0000  0.0000  0.0000
     8 H(1)   Bbb     0.0000     0.000     0.000     0.000 -0.0000  1.0000  0.0000
              Bcc     0.0000     0.000     0.000     0.000  0.0000  0.0000  1.0000
 
              Baa     0.0000     0.000     0.000     0.000  1.0000  0.0000  0.0000
     9 H(1)   Bbb     0.0000     0.000     0.000     0.000 -0.0000  1.0000  0.0000
              Bcc     0.0000     0.000     0.000     0.000  0.0000  0.0000  1.0000
 
              Baa     0.0000     0.000     0.000     0.000  1.0000  0.0000  0.0000
    10 H(1)   Bbb     0.0000     0.000     0.000     0.000 -0.0000  1.0000  0.0000
              Bcc     0.0000     0.000     0.000     0.000  0.0000  0.0000  1.0000
 
              Baa     0.0000     0.000     0.000     0.000  1.0000  0.0000  0.0000
    11 H(1)   Bbb     0.0000     0.000     0.000     0.000 -0.0000  1.0000  0.0000
              Bcc     0.0000     0.000     0.000     0.000  0.0000  0.0000  1.0000
 

 ---------------------------------------------------------------------------------

 1\1\GINC-GAMBA\SP\ROHF\Gen\C5H5N1\IRIKURA\30-Sep-2023\0\\# rohf/gen ge
 om=check guess=check\\pyridine, ROHF/cc-pVTZ-F12\\0,1\N,0,0.,0.,1.4118
 85\C,0,0.,0.,-1.378973\C,0,0.,1.139754,0.719726\C,0,0.,-1.139754,0.719
 726\C,0,0.,1.193665,-0.669713\C,0,0.,-1.193665,-0.669713\H,0,0.,0.,-2.
 460816\H,0,0.,2.053411,1.303282\H,0,0.,-2.053411,1.303282\H,0,0.,2.148
 166,-1.177632\H,0,0.,-2.148166,-1.177632\\Version=ES64L-G16RevB.01\Sta
 te=1-A1\HF=-246.7926161\RMSD=3.436e-09\Dipole=0.,0.,-0.9085343\Quadrup
 ole=-2.8609358,4.120472,-1.2595362,0.,0.,0.\PG=C02V [C2(H1C1N1),SGV(C4
 H4)]\\@


 THERE ARE PEOPLE SO ADDICTED TO EXAGERATING THEY
 CAN'T TELL THE TRUTH WITHOUT LYING. -- FORTUNE COOKIE
 Job cpu time:       0 days  0 hours 11 minutes 44.1 seconds.
 Elapsed time:       0 days  0 hours  2 minutes 56.2 seconds.
 File lengths (MBytes):  RWF=    119 Int=      0 D2E=      0 Chk=     15 Scr=      1
 Normal termination of Gaussian 16 at Sat Sep 30 00:44:55 2023.
