 Entering Gaussian System, Link 0=g16
 AtFile(1): /home/irikura/basis/pcseg2.gbs
            -H     0
            S   4   1.00
                  0.754732D+02           0.427821D-02
                  0.113575D+02           0.328672D-01
                  0.260081D+01           0.159578D+00
                  0.735503D+00           0.500000D+00
            S   1   1.00
                  0.231761D+00           1.0000000
            S   1   1.00
                  0.741675D-01           1.0000000
            P   1   1.00
                  0.160000D+01           1.0000000
            P   1   1.00
                  0.450000D+00           1.0000000
            D   1   1.00
                  0.125000D+01           1.0000000
            ****
            -C     0
            S   7   1.00
                  0.731999D+04           0.695369D-03
                  0.109818D+04           0.537138D-02
                  0.250014D+03           0.274734D-01
                  0.707586D+02           0.105078D+00
                  0.228595D+02           0.291262D+00
                  0.803936D+01           0.500000D+00
                  0.289309D+01           0.362224D+00
            S   2   1.00
                  0.521640D+01          -0.957844D-01
                  0.556124D+00           0.500000D+00
            S   1   1.00
                  0.228813D+00           1.0000000
            S   1   1.00
                  0.936338D-01           1.0000000
            P   4   1.00
                  0.339855D+02           0.818395D-02
                  0.772957D+01           0.586921D-01
                  0.224954D+01           0.222514D+00
                  0.767681D+00           0.500000D+00
            P   1   1.00
                  0.263283D+00           1.0000000
            P   1   1.00
                  0.848744D-01           1.0000000
            D   1   1.00
                  0.140000D+01           1.0000000
            D   1   1.00
                  0.450000D+00           1.0000000
            F   1   1.00
                  0.950000D+00           1.0000000
            ****
            -O     0
            S   7   1.00
                  0.135887D+05           0.665492D-03
                  0.203847D+04           0.514222D-02
                  0.464041D+03           0.263472D-01
                  0.131339D+03           0.101500D+00
                  0.425340D+02           0.285877D+00
                  0.150429D+02           0.500000D+00
                  0.546616D+01           0.368211D+00
            S   2   1.00
                  0.100915D+02          -0.100084D+00
                  0.110429D+01           0.500000D+00
            S   1   1.00
                  0.448082D+00           1.0000000
            S   1   1.00
                  0.175325D+00           1.0000000
            P   4   1.00
                  0.608220D+02           0.908253D-02
                  0.140332D+02           0.645878D-01
                  0.418244D+01           0.241502D+00
                  0.142490D+01           0.500000D+00
            P   1   1.00
                  0.478741D+00           1.0000000
            P   1   1.00
                  0.146257D+00           1.0000000
            D   1   1.00
                  0.220000D+01           1.0000000
            D   1   1.00
                  0.650000D+00           1.0000000
            F   1   1.00
                  0.110000D+01           1.0000000
            ****
            -N     0
            S   7   1.00
                  0.101643D+05           0.682757D-03
                  0.152481D+04           0.527488D-02
                  0.347119D+03           0.270037D-01
                  0.982389D+02           0.103673D+00
                  0.317799D+02           0.289575D+00
                  0.112240D+02           0.500000D+00
                  0.406611D+01           0.364621D+00
            S   2   1.00
                  0.747898D+01          -0.975681D-01
                  0.805040D+00           0.500000D+00
            S   1   1.00
                  0.324626D+00           1.0000000
            S   1   1.00
                  0.128132D+00           1.0000000
            P   4   1.00
                  0.482704D+02           0.829547D-02
                  0.110815D+02           0.596223D-01
                  0.326643D+01           0.227889D+00
                  0.111680D+01           0.500000D+00
            P   1   1.00
                  0.382049D+00           1.0000000
            P   1   1.00
                  0.121222D+00           1.0000000
            D   1   1.00
                  0.180000D+01           1.0000000
            D   1   1.00
                  0.550000D+00           1.0000000
            F   1   1.00
                  0.102000D+01           1.0000000
            ****
            -F     0
            S   7   1.00
                  0.174507D+05           0.655972D-03
                  0.261768D+04           0.506944D-02
                  0.595857D+03           0.259899D-01
                  0.168651D+03           0.100353D+00
                  0.546654D+02           0.284095D+00
                  0.193717D+02           0.500000D+00
                  0.706202D+01           0.370721D+00
            S   2   1.00
                  0.131197D+02          -0.101997D+00
                  0.145046D+01           0.500000D+00
            S   1   1.00
                  0.588255D+00           1.0000000
            S   1   1.00
                  0.227960D+00           1.0000000
            P   4   1.00
                  0.779407D+02           0.931135D-02
                  0.180425D+02           0.663964D-01
                  0.542342D+01           0.246386D+00
                  0.184876D+01           0.500000D+00
            P   1   1.00
                  0.617455D+00           1.0000000
            P   1   1.00
                  0.185496D+00           1.0000000
            D   1   1.00
                  0.280000D+01           1.0000000
            D   1   1.00
                  0.800000D+00           1.0000000
            F   1   1.00
                  0.120000D+01           1.0000000
            ****
            -Cl     0
            S   8   1.00
                  0.154272D+06           0.222473D-03
                  0.231232D+05           0.172590D-02
                  0.526257D+04           0.899286D-02
                  0.148995D+04           0.367724D-01
                  0.485417D+03           0.121446D+00
                  0.174634D+03           0.304148D+00
                  0.672393D+02           0.500000D+00
                  0.265780D+02           0.360252D+00
            S   3   1.00
                  0.131826D+03          -0.531330D-01
                  0.400703D+02          -0.233346D+00
                  0.789448D+01           0.500000D+00
            S   2   1.00
                  0.427711D+01           0.500000D+00
                  0.196233D+01           0.370517D+00
            S   1   1.00
                  0.520793D+00           1.0000000
            S   1   1.00
                  0.181633D+00           1.0000000
            P   7   1.00
                  0.124440D+04           0.988206D-03
                  0.295109D+03           0.829674D-02
                  0.947224D+02           0.430906D-01
                  0.352588D+02           0.148443D+00
                  0.144211D+02           0.344744D+00
                  0.610371D+01           0.500000D+00
                  0.258886D+01           0.348278D+00
            P   2   1.00
                  0.109447D+02          -0.196768D-01
                  0.104413D+01           0.500000D+00
            P   1   1.00
                  0.376184D+00           1.0000000
            P   1   1.00
                  0.120613D+00           1.0000000
            D   1   1.00
                  0.231000D+01           1.0000000
            D   1   1.00
                  0.520000D+00           1.0000000
            F   1   1.00
                  0.720000D+00           1.0000000
            ****
            -S     0
            S   8   1.00
                  0.134700D+06           0.226231D-03
                  0.201904D+05           0.175488D-02
                  0.459528D+04           0.914190D-02
                  0.130109D+04           0.373551D-01
                  0.423902D+03           0.123121D+00
                  0.152485D+03           0.306801D+00
                  0.586925D+02           0.500000D+00
                  0.231461D+02           0.354358D+00
            S   3   1.00
                  0.116327D+03          -0.491772D-01
                  0.352841D+02          -0.215962D+00
                  0.677831D+01           0.500000D+00
            S   2   1.00
                  0.360404D+01           0.500000D+00
                  0.164871D+01           0.366278D+00
            S   1   1.00
                  0.421821D+00           1.0000000
            S   1   1.00
                  0.147554D+00           1.0000000
            P   7   1.00
                  0.104863D+04           0.105273D-02
                  0.248717D+03           0.879338D-02
                  0.797887D+02           0.453358D-01
                  0.296023D+02           0.154476D+00
                  0.120627D+02           0.352366D+00
                  0.507628D+01           0.500000D+00
                  0.213375D+01           0.346429D+00
            P   2   1.00
                  0.928958D+01          -0.185932D-01
                  0.837819D+00           0.500000D+00
            P   1   1.00
                  0.301495D+00           1.0000000
            P   1   1.00
                  0.974740D-01           1.0000000
            D   1   1.00
                  0.210000D+01           1.0000000
            D   1   1.00
                  0.480000D+00           1.0000000
            F   1   1.00
                  0.660000D+00           1.0000000
            ****
            
 Initial command:
 /usr/local/apps/g16_b01_avx/g16/l1.exe "/wrk/irikura/Gau-337368.inp" -scrdir="/wrk/irikura/"
 Entering Link 1 = /usr/local/apps/g16_b01_avx/g16/l1.exe PID=    337370.
  
 Copyright (c) 1988-2017, Gaussian, Inc.  All Rights Reserved.
  
 This is part of the Gaussian(R) 16 program.  It is based on
 the Gaussian(R) 09 system (copyright 2009, Gaussian, Inc.),
 the Gaussian(R) 03 system (copyright 2003, Gaussian, Inc.),
 the Gaussian(R) 98 system (copyright 1998, Gaussian, Inc.),
 the Gaussian(R) 94 system (copyright 1995, Gaussian, Inc.),
 the Gaussian 92(TM) system (copyright 1992, Gaussian, Inc.),
 the Gaussian 90(TM) system (copyright 1990, Gaussian, Inc.),
 the Gaussian 88(TM) system (copyright 1988, Gaussian, Inc.),
 the Gaussian 86(TM) system (copyright 1986, Carnegie Mellon
 University), and the Gaussian 82(TM) system (copyright 1983,
 Carnegie Mellon University). Gaussian is a federally registered
 trademark of Gaussian, Inc.
  
 This software contains proprietary and confidential information,
 including trade secrets, belonging to Gaussian, Inc.
  
 This software is provided under written license and may be
 used, copied, transmitted, or stored only in accord with that
 written license.
  
 The following legend is applicable only to US Government
 contracts under FAR:
  
                    RESTRICTED RIGHTS LEGEND
  
 Use, reproduction and disclosure by the US Government is
 subject to restrictions as set forth in subparagraphs (a)
 and (c) of the Commercial Computer Software - Restricted
 Rights clause in FAR 52.227-19.
  
 Gaussian, Inc.
 340 Quinnipiac St., Bldg. 40, Wallingford CT 06492
  
  
 ---------------------------------------------------------------
 Warning -- This program may not be used in any manner that
 competes with the business of Gaussian, Inc. or will provide
 assistance to any competitor of Gaussian, Inc.  The licensee
 of this program is prohibited from giving any competitor of
 Gaussian, Inc. access to this program.  By using this program,
 the user acknowledges that Gaussian, Inc. is engaged in the
 business of creating and licensing software in the field of
 computational chemistry and represents and warrants to the
 licensee that it is not a competitor of Gaussian, Inc. and that
 it will not use this program in any manner prohibited above.
 ---------------------------------------------------------------
  

 Cite this work as:
 Gaussian 16, Revision B.01,
 M. J. Frisch, G. W. Trucks, H. B. Schlegel, G. E. Scuseria, 
 M. A. Robb, J. R. Cheeseman, G. Scalmani, V. Barone, 
 G. A. Petersson, H. Nakatsuji, X. Li, M. Caricato, A. V. Marenich, 
 J. Bloino, B. G. Janesko, R. Gomperts, B. Mennucci, H. P. Hratchian, 
 J. V. Ortiz, A. F. Izmaylov, J. L. Sonnenberg, D. Williams-Young, 
 F. Ding, F. Lipparini, F. Egidi, J. Goings, B. Peng, A. Petrone, 
 T. Henderson, D. Ranasinghe, V. G. Zakrzewski, J. Gao, N. Rega, 
 G. Zheng, W. Liang, M. Hada, M. Ehara, K. Toyota, R. Fukuda, 
 J. Hasegawa, M. Ishida, T. Nakajima, Y. Honda, O. Kitao, H. Nakai, 
 T. Vreven, K. Throssell, J. A. Montgomery, Jr., J. E. Peralta, 
 F. Ogliaro, M. J. Bearpark, J. J. Heyd, E. N. Brothers, K. N. Kudin, 
 V. N. Staroverov, T. A. Keith, R. Kobayashi, J. Normand, 
 K. Raghavachari, A. P. Rendell, J. C. Burant, S. S. Iyengar, 
 J. Tomasi, M. Cossi, J. M. Millam, M. Klene, C. Adamo, R. Cammi, 
 J. W. Ochterski, R. L. Martin, K. Morokuma, O. Farkas, 
 J. B. Foresman, and D. J. Fox, Gaussian, Inc., Wallingford CT, 2016.
 
 ******************************************
 Gaussian 16:  ES64L-G16RevB.01 20-Dec-2017
                12-Sep-2023 
 ******************************************
 %mem=500mw
 --------------------
 # b3lyp/gen opt freq
 --------------------
 1/18=20,19=15,26=3,38=1/1,3;
 2/9=110,12=2,17=6,18=5,40=1/2;
 3/5=7,11=2,25=1,30=1,71=1,74=-5/1,2,3;
 4//1;
 5/5=2,38=5/2;
 6/7=2,8=2,9=2,10=2,28=1/1;
 7//1,2,3,16;
 1/18=20,19=15,26=3/3(2);
 2/9=110/2;
 99//99;
 2/9=110/2;
 3/5=7,6=1,11=2,25=1,30=1,71=1,74=-5,82=7/1,2,3;
 4/5=5,16=3,69=1/1;
 5/5=2,38=5/2;
 7//1,2,3,16;
 1/18=20,19=15,26=3/3(-5);
 2/9=110/2;
 6/7=2,8=2,9=2,10=2,19=2,28=1/1;
 99/9=1/99;
 --------------------------------
 disulfur monoxide, B3LYP/pcseg-2
 --------------------------------
 Symbolic Z-matrix:
 Charge =  0 Multiplicity = 1
 O                     1.47557   0.81205   0. 
 S                     0.        0.68464   0. 
 S                    -0.73778  -1.09067   0. 
 

 GradGradGradGradGradGradGradGradGradGradGradGradGradGradGradGradGradGrad
 Berny optimization.
 Initialization pass.
                           ----------------------------
                           !    Initial Parameters    !
                           ! (Angstroms and Degrees)  !
 --------------------------                            --------------------------
 ! Name  Definition              Value          Derivative Info.                !
 --------------------------------------------------------------------------------
 ! R1    R(1,2)                  1.4811         estimate D2E/DX2                !
 ! R2    R(2,3)                  1.9225         estimate D2E/DX2                !
 ! A1    A(1,2,3)              117.5015         estimate D2E/DX2                !
 --------------------------------------------------------------------------------
 Trust Radius=3.00D-01 FncErr=1.00D-07 GrdErr=1.00D-06 EigMax=2.50D+02 EigMin=1.00D-04
 Number of steps in this run=     20 maximum allowed number of steps=    100.
 GradGradGradGradGradGradGradGradGradGradGradGradGradGradGradGradGradGrad

                          Input orientation:                          
 ---------------------------------------------------------------------
 Center     Atomic      Atomic             Coordinates (Angstroms)
 Number     Number       Type             X           Y           Z
 ---------------------------------------------------------------------
      1          8           0        1.475565    0.812046    0.000000
      2         16           0        0.000000    0.684644    0.000000
      3         16           0       -0.737782   -1.090667    0.000000
 ---------------------------------------------------------------------
                    Distance matrix (angstroms):
                    1          2          3
     1  O    0.000000
     2  S    1.481055   0.000000
     3  S    2.918771   1.922512   0.000000
 Stoichiometry    OS2
 Framework group  CS[SG(OS2)]
 Deg. of freedom     3
 Full point group                 CS      NOp   2
 Largest Abelian subgroup         CS      NOp   2
 Largest concise Abelian subgroup C1      NOp   1
                         Standard orientation:                         
 ---------------------------------------------------------------------
 Center     Atomic      Atomic             Coordinates (Angstroms)
 Number     Number       Type             X           Y           Z
 ---------------------------------------------------------------------
      1          8           0        1.475565    0.812046    0.000000
      2         16           0        0.000000    0.684644    0.000000
      3         16           0       -0.737783   -1.090667    0.000000
 ---------------------------------------------------------------------
 Rotational constants (GHZ):          39.9559695           4.8996147           4.3644255
 General basis read from cards:  (5D, 7F)
 There are    78 symmetry adapted cartesian basis functions of A'  symmetry.
 There are    35 symmetry adapted cartesian basis functions of A"  symmetry.
 There are    66 symmetry adapted basis functions of A'  symmetry.
 There are    32 symmetry adapted basis functions of A"  symmetry.
    98 basis functions,   191 primitive gaussians,   113 cartesian basis functions
    20 alpha electrons       20 beta electrons
       nuclear repulsion energy       139.4054419487 Hartrees.
 NAtoms=    3 NActive=    3 NUniq=    3 SFac= 1.00D+00 NAtFMM=   60 NAOKFM=F Big=F
 Integral buffers will be    131072 words long.
 Raffenetti 2 integral format.
 Two-electron integral symmetry is turned on.
 One-electron integrals computed using PRISM.
 NBasis=    98 RedAO= T EigKep=  5.67D-03  NBF=    66    32
 NBsUse=    98 1.00D-06 EigRej= -1.00D+00 NBFU=    66    32
 ExpMin= 9.75D-02 ExpMax= 1.35D+05 ExpMxC= 1.30D+03 IAcc=3 IRadAn=         5 AccDes= 0.00D+00
 Harris functional with IExCor=  402 and IRadAn=       5 diagonalized for initial guess.
 HarFok:  IExCor=  402 AccDes= 0.00D+00 IRadAn=         5 IDoV= 1 UseB2=F ITyADJ=14
 ICtDFT=  3500011 ScaDFX=  1.000000  1.000000  1.000000  1.000000
 FoFCou: FMM=F IPFlag=           0 FMFlag=      100000 FMFlg1=           0
         NFxFlg=           0 DoJE=T BraDBF=F KetDBF=T FulRan=T
         wScrn=  0.000000 ICntrl=       500 IOpCl=  0 I1Cent=   200000004 NGrid=           0
         NMat0=    1 NMatS0=      1 NMatT0=    0 NMatD0=    1 NMtDS0=    0 NMtDT0=    0
 Petite list used in FoFCou.
 Initial guess orbital symmetries:
       Occupied  (A') (A') (A') (A') (A') (A') (A') (A") (A') (A')
                 (A") (A') (A') (A') (A') (A') (A") (A') (A") (A')
       Virtual   (A") (A') (A') (A') (A') (A") (A') (A') (A") (A')
                 (A") (A') (A") (A') (A') (A') (A") (A") (A') (A')
                 (A') (A") (A') (A') (A') (A") (A') (A') (A") (A')
                 (A") (A') (A') (A") (A") (A') (A") (A') (A') (A")
                 (A') (A') (A") (A') (A") (A') (A') (A') (A") (A')
                 (A") (A') (A') (A") (A') (A") (A') (A') (A") (A')
                 (A') (A") (A') (A") (A") (A') (A') (A') (A") (A')
                 (A') (A") (A') (A") (A') (A') (A') (A')
 The electronic state of the initial guess is 1-A'.
 Keep R1 ints in memory in symmetry-blocked form, NReq=17764135.
 Requested convergence on RMS density matrix=1.00D-08 within 128 cycles.
 Requested convergence on MAX density matrix=1.00D-06.
 Requested convergence on             energy=1.00D-06.
 No special actions if energy rises.
 Integral accuracy reduced to 1.0D-05 until final iterations.
 EnCoef did     2 forward-backward iterations
 EnCoef did     1 forward-backward iterations
 Initial convergence to 1.0D-05 achieved.  Increase integral accuracy.
 SCF Done:  E(RB3LYP) =  -871.687551446     A.U. after   15 cycles
            NFock= 15  Conv=0.59D-08     -V/T= 2.0011

 **********************************************************************

            Population analysis using the SCF Density.

 **********************************************************************

 Orbital symmetries:
       Occupied  (A') (A') (A') (A') (A') (A") (A') (A') (A') (A")
                 (A') (A') (A') (A') (A') (A') (A") (A") (A') (A')
       Virtual   (A") (A') (A') (A') (A') (A") (A') (A") (A') (A')
                 (A") (A') (A") (A') (A') (A") (A') (A") (A') (A')
                 (A') (A") (A') (A') (A') (A") (A') (A") (A') (A")
                 (A') (A') (A") (A') (A") (A') (A") (A') (A') (A")
                 (A') (A') (A") (A') (A') (A") (A') (A') (A") (A')
                 (A") (A') (A') (A") (A') (A") (A') (A') (A") (A')
                 (A') (A") (A') (A") (A') (A") (A') (A') (A") (A')
                 (A') (A") (A') (A") (A') (A') (A') (A')
 The electronic state is 1-A'.
 Alpha  occ. eigenvalues --  -89.00321 -88.88079 -19.17734  -8.07979  -7.97299
 Alpha  occ. eigenvalues --   -6.04193  -6.04098  -6.03666  -5.93455  -5.93378
 Alpha  occ. eigenvalues --   -5.92719  -1.08655  -0.82242  -0.61889  -0.46978
 Alpha  occ. eigenvalues --   -0.45806  -0.45768  -0.32084  -0.31882  -0.29189
 Alpha virt. eigenvalues --   -0.16187  -0.01861   0.00971   0.17080   0.19364
 Alpha virt. eigenvalues --    0.19791   0.22576   0.25740   0.26814   0.31867
 Alpha virt. eigenvalues --    0.33598   0.34958   0.35652   0.36878   0.45202
 Alpha virt. eigenvalues --    0.48559   0.48764   0.54401   0.55423   0.59155
 Alpha virt. eigenvalues --    0.66522   0.68661   0.72907   0.89399   1.01172
 Alpha virt. eigenvalues --    1.38096   1.39417   1.54912   1.55420   1.64535
 Alpha virt. eigenvalues --    1.65350   1.67535   1.72470   1.76224   1.76367
 Alpha virt. eigenvalues --    1.78975   1.80327   1.82543   1.88900   1.90315
 Alpha virt. eigenvalues --    1.90673   1.96728   2.02707   2.06818   2.10785
 Alpha virt. eigenvalues --    2.14239   2.25422   2.30711   2.35161   2.36963
 Alpha virt. eigenvalues --    2.54353   2.68608   2.78168   3.21247   3.29749
 Alpha virt. eigenvalues --    3.32901   3.35614   3.40290   3.46634   3.52413
 Alpha virt. eigenvalues --    3.70059   3.70101   3.95590   3.95921   4.06961
 Alpha virt. eigenvalues --    4.09709   4.13138   4.38683   4.51261   4.71471
 Alpha virt. eigenvalues --    4.92943   5.99777   6.00100   6.34373   6.36432
 Alpha virt. eigenvalues --    6.66181  23.80745  27.06581
          Condensed to atoms (all electrons):
               1          2          3
     1  O    8.303712   0.186116  -0.078550
     2  S    0.186116  14.919586   0.358029
     3  S   -0.078550   0.358029  15.845511
 Mulliken charges:
               1
     1  O   -0.411279
     2  S    0.536269
     3  S   -0.124990
 Sum of Mulliken charges =  -0.00000
 Mulliken charges with hydrogens summed into heavy atoms:
               1
     1  O   -0.411279
     2  S    0.536269
     3  S   -0.124990
 Electronic spatial extent (au):  <R**2>=            277.1850
 Charge=             -0.0000 electrons
 Dipole moment (field-independent basis, Debye):
    X=             -1.6552    Y=              0.3762    Z=              0.0000  Tot=              1.6974
 Quadrupole moment (field-independent basis, Debye-Ang):
   XX=            -35.0189   YY=            -30.3999   ZZ=            -29.1284
   XY=             -1.2104   XZ=              0.0000   YZ=              0.0000
 Traceless Quadrupole moment (field-independent basis, Debye-Ang):
   XX=             -3.5032   YY=              1.1159   ZZ=              2.3873
   XY=             -1.2104   XZ=              0.0000   YZ=              0.0000
 Octapole moment (field-independent basis, Debye-Ang**2):
  XXX=              0.1633  YYY=              3.2759  ZZZ=              0.0000  XYY=             -1.8307
  XXY=             -1.6105  XXZ=              0.0000  XZZ=              1.7157  YZZ=              2.0888
  YYZ=              0.0000  XYZ=              0.0000
 Hexadecapole moment (field-independent basis, Debye-Ang**3):
 XXXX=           -166.4708 YYYY=           -180.7133 ZZZZ=            -34.3409 XXXY=            -55.8812
 XXXZ=              0.0000 YYYX=            -47.4572 YYYZ=              0.0000 ZZZX=              0.0000
 ZZZY=              0.0000 XXYY=            -57.3483 XXZZ=            -31.3717 YYZZ=            -35.3146
 XXYZ=              0.0000 YYXZ=              0.0000 ZZXY=            -16.4930
 N-N= 1.394054419487D+02 E-N=-2.350711250792D+03  KE= 8.706962291547D+02
 Symmetry A'   KE= 7.922913488325D+02
 Symmetry A"   KE= 7.840488032221D+01
 Calling FoFJK, ICntrl=      2127 FMM=F ISym2X=1 I1Cent= 0 IOpClX= 0 NMat=1 NMatS=1 NMatT=0.
 ***** Axes restored to original set *****
 -------------------------------------------------------------------
 Center     Atomic                   Forces (Hartrees/Bohr)
 Number     Number              X              Y              Z
 -------------------------------------------------------------------
      1        8          -0.017556050   -0.001951920   -0.000000000
      2       16           0.012783625   -0.008654970   -0.000000000
      3       16           0.004772425    0.010606891   -0.000000000
 -------------------------------------------------------------------
 Cartesian Forces:  Max     0.017556050 RMS     0.008728221

 GradGradGradGradGradGradGradGradGradGradGradGradGradGradGradGradGradGrad
 Berny optimization.
 FormGI is forming the generalized inverse of G from B-inverse, IUseBI=4.
 Internal  Forces:  Max     0.017658473 RMS     0.012226788
 Search for a local minimum.
 Step number   1 out of a maximum of   20
 All quantities printed in internal units (Hartrees-Bohrs-Radians)
 Mixed Optimization -- RFO/linear search
 Second derivative matrix not updated -- first step.
 The second derivative matrix:
                          R1        R2        A1
           R1           0.83309
           R2           0.00000   0.45236
           A1           0.00000   0.00000   0.25000
 ITU=  0
     Eigenvalues ---    0.25000   0.45236   0.83309
 RFO step:  Lambda=-6.78287387D-04 EMin= 2.50000000D-01
 Linear search not attempted -- first point.
 Iteration  1 RMS(Cart)=  0.01981186 RMS(Int)=  0.00002243
 Iteration  2 RMS(Cart)=  0.00003060 RMS(Int)=  0.00000000
 Iteration  3 RMS(Cart)=  0.00000000 RMS(Int)=  0.00000000
 ClnCor:  largest displacement from symmetrization is 4.97D-16 for atom     3.
 Variable       Old X    -DE/DX   Delta X   Delta X   Delta X     New X
                                 (Linear)    (Quad)   (Total)
    R1        2.79879  -0.01766   0.00000  -0.02118  -0.02118   2.77761
    R2        3.63302  -0.01163   0.00000  -0.02566  -0.02566   3.60736
    A1        2.05079  -0.00122   0.00000  -0.00486  -0.00486   2.04593
         Item               Value     Threshold  Converged?
 Maximum Force            0.017658     0.000450     NO 
 RMS     Force            0.012227     0.000300     NO 
 Maximum Displacement     0.018913     0.001800     NO 
 RMS     Displacement     0.019798     0.001200     NO 
 Predicted change in Energy=-3.395276D-04
 GradGradGradGradGradGradGradGradGradGradGradGradGradGradGradGradGradGrad

                          Input orientation:                          
 ---------------------------------------------------------------------
 Center     Atomic      Atomic             Coordinates (Angstroms)
 Number     Number       Type             X           Y           Z
 ---------------------------------------------------------------------
      1          8           0        1.465557    0.804714    0.000000
      2         16           0        0.000781    0.682710    0.000000
      3         16           0       -0.728555   -1.081401    0.000000
 ---------------------------------------------------------------------
                    Distance matrix (angstroms):
                    1          2          3
     1  O    0.000000
     2  S    1.469847   0.000000
     3  S    2.893364   1.908931   0.000000
 Stoichiometry    OS2
 Framework group  CS[SG(OS2)]
 Deg. of freedom     3
 Full point group                 CS      NOp   2
 Largest Abelian subgroup         CS      NOp   2
 Largest concise Abelian subgroup C1      NOp   1
                         Standard orientation:                         
 ---------------------------------------------------------------------
 Center     Atomic      Atomic             Coordinates (Angstroms)
 Number     Number       Type             X           Y           Z
 ---------------------------------------------------------------------
      1          8           0        1.464991    0.800624    0.000000
      2         16           0        0.000000    0.681245    0.000000
      3         16           0       -0.732496   -1.081557    0.000000
 ---------------------------------------------------------------------
 Rotational constants (GHZ):          40.2545820           4.9830842           4.4341804
 Basis read from rwf:  (5D, 7F)
 There are    78 symmetry adapted cartesian basis functions of A'  symmetry.
 There are    35 symmetry adapted cartesian basis functions of A"  symmetry.
 There are    66 symmetry adapted basis functions of A'  symmetry.
 There are    32 symmetry adapted basis functions of A"  symmetry.
    98 basis functions,   191 primitive gaussians,   113 cartesian basis functions
    20 alpha electrons       20 beta electrons
       nuclear repulsion energy       140.4592335824 Hartrees.
 NAtoms=    3 NActive=    3 NUniq=    3 SFac= 1.00D+00 NAtFMM=   60 NAOKFM=F Big=F
 Integral buffers will be    131072 words long.
 Raffenetti 2 integral format.
 Two-electron integral symmetry is turned on.
 One-electron integrals computed using PRISM.
 NBasis=    98 RedAO= T EigKep=  5.40D-03  NBF=    66    32
 NBsUse=    98 1.00D-06 EigRej= -1.00D+00 NBFU=    66    32
 Initial guess from the checkpoint file:  "/wrk/irikura/Gau-337370.chk"
 B after Tr=     0.000000    0.000000    0.000000
         Rot=    1.000000    0.000000   -0.000000    0.000708 Ang=   0.08 deg.
 Initial guess orbital symmetries:
       Occupied  (A') (A') (A') (A') (A') (A") (A') (A') (A') (A")
                 (A') (A') (A') (A') (A') (A') (A") (A") (A') (A')
       Virtual   (A") (A') (A') (A') (A') (A") (A') (A") (A') (A')
                 (A") (A') (A") (A') (A') (A") (A') (A") (A') (A')
                 (A') (A") (A') (A') (A') (A") (A') (A") (A') (A")
                 (A') (A') (A") (A') (A") (A') (A") (A') (A') (A")
                 (A') (A') (A") (A') (A') (A") (A') (A') (A") (A')
                 (A") (A') (A') (A") (A') (A") (A') (A') (A") (A')
                 (A') (A") (A') (A") (A') (A") (A') (A') (A") (A')
                 (A') (A") (A') (A") (A') (A') (A') (A')
 Keep R1 ints in memory in symmetry-blocked form, NReq=17764135.
 Requested convergence on RMS density matrix=1.00D-08 within 128 cycles.
 Requested convergence on MAX density matrix=1.00D-06.
 Requested convergence on             energy=1.00D-06.
 No special actions if energy rises.
 SCF Done:  E(RB3LYP) =  -871.688010274     A.U. after   10 cycles
            NFock= 10  Conv=0.17D-08     -V/T= 2.0011
 Calling FoFJK, ICntrl=      2127 FMM=F ISym2X=1 I1Cent= 0 IOpClX= 0 NMat=1 NMatS=1 NMatT=0.
 ***** Axes restored to original set *****
 -------------------------------------------------------------------
 Center     Atomic                   Forces (Hartrees/Bohr)
 Number     Number              X              Y              Z
 -------------------------------------------------------------------
      1        8          -0.005983196   -0.000034139   -0.000000000
      2       16           0.004616511   -0.004200787   -0.000000000
      3       16           0.001366685    0.004234926   -0.000000000
 -------------------------------------------------------------------
 Cartesian Forces:  Max     0.005983196 RMS     0.003241416

 GradGradGradGradGradGradGradGradGradGradGradGradGradGradGradGradGradGrad
 Berny optimization.
 Using GEDIIS/GDIIS optimizer.
 FormGI is forming the generalized inverse of G from B-inverse, IUseBI=4.
 Internal  Forces:  Max     0.005965112 RMS     0.004355363
 Search for a local minimum.
 Step number   2 out of a maximum of   20
 All quantities printed in internal units (Hartrees-Bohrs-Radians)
 Mixed Optimization -- RFO/linear search
 Update second derivatives using D2CorX and points    1    2
 DE= -4.59D-04 DEPred=-3.40D-04 R= 1.35D+00
 TightC=F SS=  1.41D+00  RLast= 3.36D-02 DXNew= 5.0454D-01 1.0088D-01
 Trust test= 1.35D+00 RLast= 3.36D-02 DXMaxT set to 3.00D-01
 The second derivative matrix:
                          R1        R2        A1
           R1           0.68132
           R2          -0.11310   0.36980
           A1           0.03419   0.01966   0.26191
 ITU=  1  0
 Use linear search instead of GDIIS.
     Eigenvalues ---    0.25009   0.34335   0.71959
 RFO step:  Lambda=-2.74392449D-05 EMin= 2.50094009D-01
 Quartic linear search produced a step of  0.49875.
 Iteration  1 RMS(Cart)=  0.00910811 RMS(Int)=  0.00002724
 Iteration  2 RMS(Cart)=  0.00003997 RMS(Int)=  0.00000000
 Iteration  3 RMS(Cart)=  0.00000000 RMS(Int)=  0.00000000
 ClnCor:  largest displacement from symmetrization is 2.22D-16 for atom     3.
 Variable       Old X    -DE/DX   Delta X   Delta X   Delta X     New X
                                 (Linear)    (Quad)   (Total)
    R1        2.77761  -0.00597  -0.01056  -0.00075  -0.01131   2.76630
    R2        3.60736  -0.00444  -0.01280  -0.00231  -0.01511   3.59225
    A1        2.04593   0.00128  -0.00242   0.01014   0.00771   2.05364
         Item               Value     Threshold  Converged?
 Maximum Force            0.005965     0.000450     NO 
 RMS     Force            0.004355     0.000300     NO 
 Maximum Displacement     0.010034     0.001800     NO 
 RMS     Displacement     0.009112     0.001200     NO 
 Predicted change in Energy=-7.541229D-05
 GradGradGradGradGradGradGradGradGradGradGradGradGradGradGradGradGradGrad

                          Input orientation:                          
 ---------------------------------------------------------------------
 Center     Atomic      Atomic             Coordinates (Angstroms)
 Number     Number       Type             X           Y           Z
 ---------------------------------------------------------------------
      1          8           0        1.461945    0.805736    0.000000
      2         16           0        0.003720    0.677400    0.000000
      3         16           0       -0.727881   -1.077113    0.000000
 ---------------------------------------------------------------------
                    Distance matrix (angstroms):
                    1          2          3
     1  O    0.000000
     2  S    1.463861   0.000000
     3  S    2.887985   1.900936   0.000000
 Stoichiometry    OS2
 Framework group  CS[SG(OS2)]
 Deg. of freedom     3
 Full point group                 CS      NOp   2
 Largest Abelian subgroup         CS      NOp   2
 Largest concise Abelian subgroup C1      NOp   1
                         Standard orientation:                         
 ---------------------------------------------------------------------
 Center     Atomic      Atomic             Coordinates (Angstroms)
 Number     Number       Type             X           Y           Z
 ---------------------------------------------------------------------
      1          8           0        1.458035    0.806621    0.000000
      2         16           0        0.000000    0.676139    0.000000
      3         16           0       -0.729017   -1.079450    0.000000
 ---------------------------------------------------------------------
 Rotational constants (GHZ):          41.0723167           5.0053338           4.4616132
 Basis read from rwf:  (5D, 7F)
 There are    78 symmetry adapted cartesian basis functions of A'  symmetry.
 There are    35 symmetry adapted cartesian basis functions of A"  symmetry.
 There are    66 symmetry adapted basis functions of A'  symmetry.
 There are    32 symmetry adapted basis functions of A"  symmetry.
    98 basis functions,   191 primitive gaussians,   113 cartesian basis functions
    20 alpha electrons       20 beta electrons
       nuclear repulsion energy       140.9897501031 Hartrees.
 NAtoms=    3 NActive=    3 NUniq=    3 SFac= 1.00D+00 NAtFMM=   60 NAOKFM=F Big=F
 Integral buffers will be    131072 words long.
 Raffenetti 2 integral format.
 Two-electron integral symmetry is turned on.
 One-electron integrals computed using PRISM.
 NBasis=    98 RedAO= T EigKep=  5.26D-03  NBF=    66    32
 NBsUse=    98 1.00D-06 EigRej= -1.00D+00 NBFU=    66    32
 Initial guess from the checkpoint file:  "/wrk/irikura/Gau-337370.chk"
 B after Tr=    -0.000000   -0.000000    0.000000
         Rot=    0.999999   -0.000000   -0.000000   -0.001322 Ang=  -0.15 deg.
 Initial guess orbital symmetries:
       Occupied  (A') (A') (A') (A') (A') (A") (A') (A') (A') (A")
                 (A') (A') (A') (A') (A') (A") (A') (A") (A') (A')
       Virtual   (A") (A') (A') (A') (A') (A") (A') (A") (A') (A')
                 (A") (A') (A") (A') (A') (A") (A') (A") (A') (A')
                 (A') (A") (A') (A') (A') (A") (A') (A") (A') (A")
                 (A') (A') (A") (A') (A") (A') (A") (A') (A') (A")
                 (A') (A') (A") (A') (A') (A") (A') (A') (A") (A')
                 (A") (A') (A') (A") (A') (A") (A') (A') (A") (A')
                 (A") (A') (A') (A") (A') (A") (A') (A') (A") (A')
                 (A') (A") (A') (A") (A') (A') (A') (A')
 Keep R1 ints in memory in symmetry-blocked form, NReq=17764135.
 Requested convergence on RMS density matrix=1.00D-08 within 128 cycles.
 Requested convergence on MAX density matrix=1.00D-06.
 Requested convergence on             energy=1.00D-06.
 No special actions if energy rises.
 SCF Done:  E(RB3LYP) =  -871.688078812     A.U. after    9 cycles
            NFock=  9  Conv=0.68D-08     -V/T= 2.0010
 Calling FoFJK, ICntrl=      2127 FMM=F ISym2X=1 I1Cent= 0 IOpClX= 0 NMat=1 NMatS=1 NMatT=0.
 ***** Axes restored to original set *****
 -------------------------------------------------------------------
 Center     Atomic                   Forces (Hartrees/Bohr)
 Number     Number              X              Y              Z
 -------------------------------------------------------------------
      1        8           0.000410989   -0.000242301   -0.000000000
      2       16          -0.000659691    0.000204126   -0.000000000
      3       16           0.000248701    0.000038175   -0.000000000
 -------------------------------------------------------------------
 Cartesian Forces:  Max     0.000659691 RMS     0.000292079

 GradGradGradGradGradGradGradGradGradGradGradGradGradGradGradGradGradGrad
 Berny optimization.
 Using GEDIIS/GDIIS optimizer.
 FormGI is forming the generalized inverse of G from B-inverse, IUseBI=4.
 Internal  Forces:  Max     0.000769123 RMS     0.000503205
 Search for a local minimum.
 Step number   3 out of a maximum of   20
 All quantities printed in internal units (Hartrees-Bohrs-Radians)
 Mixed Optimization -- En-DIIS/RFO-DIIS
 Update second derivatives using D2CorX and points    1    2    3
 DE= -6.85D-05 DEPred=-7.54D-05 R= 9.09D-01
 TightC=F SS=  1.41D+00  RLast= 2.04D-02 DXNew= 5.0454D-01 6.1166D-02
 Trust test= 9.09D-01 RLast= 2.04D-02 DXMaxT set to 3.00D-01
 The second derivative matrix:
                          R1        R2        A1
           R1           0.70714
           R2          -0.10750   0.36563
           A1           0.00273   0.00044   0.27101
 ITU=  1  1  0
 Use linear search instead of GDIIS.
     Eigenvalues ---    0.27097   0.33463   0.73817
 RFO step:  Lambda=-1.96123170D-06 EMin= 2.70974342D-01
 Quartic linear search produced a step of -0.05360.
 Iteration  1 RMS(Cart)=  0.00254034 RMS(Int)=  0.00000263
 Iteration  2 RMS(Cart)=  0.00000257 RMS(Int)=  0.00000000
 Iteration  3 RMS(Cart)=  0.00000000 RMS(Int)=  0.00000000
 ClnCor:  largest displacement from symmetrization is 2.22D-16 for atom     2.
 Variable       Old X    -DE/DX   Delta X   Delta X   Delta X     New X
                                 (Linear)    (Quad)   (Total)
    R1        2.76630   0.00039   0.00061  -0.00009   0.00052   2.76682
    R2        3.59225  -0.00013   0.00081  -0.00103  -0.00022   3.59203
    A1        2.05364  -0.00077  -0.00041  -0.00242  -0.00283   2.05081
         Item               Value     Threshold  Converged?
 Maximum Force            0.000769     0.000450     NO 
 RMS     Force            0.000503     0.000300     NO 
 Maximum Displacement     0.002566     0.001800     NO 
 RMS     Displacement     0.002542     0.001200     NO 
 Predicted change in Energy=-1.209233D-06
 GradGradGradGradGradGradGradGradGradGradGradGradGradGradGradGradGradGrad

                          Input orientation:                          
 ---------------------------------------------------------------------
 Center     Atomic      Atomic             Coordinates (Angstroms)
 Number     Number       Type             X           Y           Z
 ---------------------------------------------------------------------
      1          8           0        1.461573    0.804378    0.000000
      2         16           0        0.002862    0.678451    0.000000
      3         16           0       -0.726652   -1.076807    0.000000
 ---------------------------------------------------------------------
                    Distance matrix (angstroms):
                    1          2          3
     1  O    0.000000
     2  S    1.464137   0.000000
     3  S    2.885687   1.900821   0.000000
 Stoichiometry    OS2
 Framework group  CS[SG(OS2)]
 Deg. of freedom     3
 Full point group                 CS      NOp   2
 Largest Abelian subgroup         CS      NOp   2
 Largest concise Abelian subgroup C1      NOp   1
                         Standard orientation:                         
 ---------------------------------------------------------------------
 Center     Atomic      Atomic             Coordinates (Angstroms)
 Number     Number       Type             X           Y           Z
 ---------------------------------------------------------------------
      1          8           0        1.458700    0.802981    0.000000
      2         16           0        0.000000    0.676918    0.000000
      3         16           0       -0.729350   -1.078408    0.000000
 ---------------------------------------------------------------------
 Rotational constants (GHZ):          40.8827522           5.0124026           4.4649771
 Basis read from rwf:  (5D, 7F)
 There are    78 symmetry adapted cartesian basis functions of A'  symmetry.
 There are    35 symmetry adapted cartesian basis functions of A"  symmetry.
 There are    66 symmetry adapted basis functions of A'  symmetry.
 There are    32 symmetry adapted basis functions of A"  symmetry.
    98 basis functions,   191 primitive gaussians,   113 cartesian basis functions
    20 alpha electrons       20 beta electrons
       nuclear repulsion energy       141.0040348272 Hartrees.
 NAtoms=    3 NActive=    3 NUniq=    3 SFac= 1.00D+00 NAtFMM=   60 NAOKFM=F Big=F
 Integral buffers will be    131072 words long.
 Raffenetti 2 integral format.
 Two-electron integral symmetry is turned on.
 One-electron integrals computed using PRISM.
 NBasis=    98 RedAO= T EigKep=  5.26D-03  NBF=    66    32
 NBsUse=    98 1.00D-06 EigRej= -1.00D+00 NBFU=    66    32
 Initial guess from the checkpoint file:  "/wrk/irikura/Gau-337370.chk"
 B after Tr=     0.000000    0.000000   -0.000000
         Rot=    1.000000    0.000000    0.000000    0.000571 Ang=   0.07 deg.
 Initial guess orbital symmetries:
       Occupied  (A') (A') (A') (A') (A') (A") (A') (A') (A') (A")
                 (A') (A') (A') (A') (A') (A") (A') (A") (A') (A')
       Virtual   (A") (A') (A') (A') (A') (A") (A') (A") (A') (A')
                 (A") (A') (A") (A') (A') (A") (A') (A") (A') (A')
                 (A') (A") (A') (A') (A') (A") (A') (A") (A') (A')
                 (A") (A') (A") (A') (A") (A') (A") (A') (A') (A")
                 (A') (A') (A") (A') (A') (A") (A') (A') (A") (A')
                 (A") (A') (A') (A") (A') (A") (A') (A') (A") (A')
                 (A') (A") (A') (A") (A') (A") (A') (A') (A") (A')
                 (A') (A") (A') (A") (A') (A') (A') (A')
 Keep R1 ints in memory in symmetry-blocked form, NReq=17764135.
 Requested convergence on RMS density matrix=1.00D-08 within 128 cycles.
 Requested convergence on MAX density matrix=1.00D-06.
 Requested convergence on             energy=1.00D-06.
 No special actions if energy rises.
 SCF Done:  E(RB3LYP) =  -871.688079820     A.U. after    8 cycles
            NFock=  8  Conv=0.45D-08     -V/T= 2.0010
 Calling FoFJK, ICntrl=      2127 FMM=F ISym2X=1 I1Cent= 0 IOpClX= 0 NMat=1 NMatS=1 NMatT=0.
 ***** Axes restored to original set *****
 -------------------------------------------------------------------
 Center     Atomic                   Forces (Hartrees/Bohr)
 Number     Number              X              Y              Z
 -------------------------------------------------------------------
      1        8           0.000167278    0.000076639   -0.000000000
      2       16          -0.000138895   -0.000129752   -0.000000000
      3       16          -0.000028383    0.000053113   -0.000000000
 -------------------------------------------------------------------
 Cartesian Forces:  Max     0.000167278 RMS     0.000090437

 GradGradGradGradGradGradGradGradGradGradGradGradGradGradGradGradGradGrad
 Berny optimization.
 Using GEDIIS/GDIIS optimizer.
 FormGI is forming the generalized inverse of G from B-inverse, IUseBI=4.
 Internal  Forces:  Max     0.000173509 RMS     0.000141916
 Search for a local minimum.
 Step number   4 out of a maximum of   20
 All quantities printed in internal units (Hartrees-Bohrs-Radians)
 Mixed Optimization -- En-DIIS/RFO-DIIS
 Swapping is turned off.
 Update second derivatives using D2CorX and points    1    2    3    4
 DE= -1.01D-06 DEPred=-1.21D-06 R= 8.34D-01
 TightC=F SS=  1.41D+00  RLast= 2.89D-03 DXNew= 5.0454D-01 8.6638D-03
 Trust test= 8.34D-01 RLast= 2.89D-03 DXMaxT set to 3.00D-01
 The second derivative matrix:
                          R1        R2        A1
           R1           0.68306
           R2          -0.08785   0.35569
           A1           0.05655  -0.01072   0.34276
 ITU=  1  1  1  0
     Eigenvalues ---    0.33038   0.33709   0.71404
 En-DIIS/RFO-DIIS/Sim-DIIS IScMMF=       -3 using points:     4    3
 RFO step:  Lambda=-1.16176767D-07.
 DidBck=F Rises=F RFO-DIIS coefs:    0.85824    0.14176
 Iteration  1 RMS(Cart)=  0.00045074 RMS(Int)=  0.00000007
 Iteration  2 RMS(Cart)=  0.00000006 RMS(Int)=  0.00000000
 ClnCor:  largest displacement from symmetrization is 4.97D-16 for atom     1.
 Variable       Old X    -DE/DX   Delta X   Delta X   Delta X     New X
                                 (Linear)    (Quad)   (Total)
    R1        2.76682   0.00017  -0.00007   0.00028   0.00021   2.76703
    R2        3.59203  -0.00004   0.00003  -0.00007  -0.00004   3.59199
    A1        2.05081   0.00017   0.00040   0.00006   0.00046   2.05127
         Item               Value     Threshold  Converged?
 Maximum Force            0.000174     0.000450     YES
 RMS     Force            0.000142     0.000300     YES
 Maximum Displacement     0.000461     0.001800     YES
 RMS     Displacement     0.000451     0.001200     YES
 Predicted change in Energy=-5.808838D-08
 Optimization completed.
    -- Stationary point found.
                           ----------------------------
                           !   Optimized Parameters   !
                           ! (Angstroms and Degrees)  !
 --------------------------                            --------------------------
 ! Name  Definition              Value          Derivative Info.                !
 --------------------------------------------------------------------------------
 ! R1    R(1,2)                  1.4641         -DE/DX =    0.0002              !
 ! R2    R(2,3)                  1.9008         -DE/DX =    0.0                 !
 ! A1    A(1,2,3)              117.5025         -DE/DX =    0.0002              !
 --------------------------------------------------------------------------------
 GradGradGradGradGradGradGradGradGradGradGradGradGradGradGradGradGradGrad

                          Input orientation:                          
 ---------------------------------------------------------------------
 Center     Atomic      Atomic             Coordinates (Angstroms)
 Number     Number       Type             X           Y           Z
 ---------------------------------------------------------------------
      1          8           0        1.461573    0.804378    0.000000
      2         16           0        0.002862    0.678451    0.000000
      3         16           0       -0.726652   -1.076807    0.000000
 ---------------------------------------------------------------------
                    Distance matrix (angstroms):
                    1          2          3
     1  O    0.000000
     2  S    1.464137   0.000000
     3  S    2.885687   1.900821   0.000000
 Stoichiometry    OS2
 Framework group  CS[SG(OS2)]
 Deg. of freedom     3
 Full point group                 CS      NOp   2
 Largest Abelian subgroup         CS      NOp   2
 Largest concise Abelian subgroup C1      NOp   1
                         Standard orientation:                         
 ---------------------------------------------------------------------
 Center     Atomic      Atomic             Coordinates (Angstroms)
 Number     Number       Type             X           Y           Z
 ---------------------------------------------------------------------
      1          8           0        1.458700    0.802981    0.000000
      2         16           0        0.000000    0.676918    0.000000
      3         16           0       -0.729350   -1.078408    0.000000
 ---------------------------------------------------------------------
 Rotational constants (GHZ):          40.8827522           5.0124026           4.4649771

 **********************************************************************

            Population analysis using the SCF Density.

 **********************************************************************

 Orbital symmetries:
       Occupied  (A') (A') (A') (A') (A') (A") (A') (A') (A') (A")
                 (A') (A') (A') (A') (A') (A") (A') (A") (A') (A')
       Virtual   (A") (A') (A') (A') (A') (A") (A') (A") (A') (A')
                 (A") (A') (A") (A') (A') (A") (A') (A") (A') (A')
                 (A') (A") (A') (A') (A') (A") (A') (A") (A') (A')
                 (A") (A') (A") (A') (A") (A') (A") (A') (A') (A")
                 (A') (A') (A") (A') (A') (A") (A') (A') (A") (A')
                 (A") (A') (A') (A") (A') (A") (A') (A') (A") (A')
                 (A") (A') (A') (A") (A') (A") (A') (A') (A") (A')
                 (A') (A") (A') (A") (A') (A') (A') (A')
 The electronic state is 1-A'.
 Alpha  occ. eigenvalues --  -89.00042 -88.87820 -19.17500  -8.07766  -7.97120
 Alpha  occ. eigenvalues --   -6.03985  -6.03882  -6.03439  -5.93262  -5.93192
 Alpha  occ. eigenvalues --   -5.92544  -1.09423  -0.82638  -0.61533  -0.47048
 Alpha  occ. eigenvalues --   -0.46178  -0.46116  -0.32222  -0.31855  -0.29175
 Alpha virt. eigenvalues --   -0.15770  -0.01114   0.01421   0.16935   0.19418
 Alpha virt. eigenvalues --    0.19651   0.22584   0.25786   0.26958   0.31774
 Alpha virt. eigenvalues --    0.33616   0.34964   0.35711   0.37364   0.45278
 Alpha virt. eigenvalues --    0.48513   0.48866   0.54775   0.55893   0.59751
 Alpha virt. eigenvalues --    0.67378   0.69480   0.73445   0.91006   1.02550
 Alpha virt. eigenvalues --    1.37959   1.39214   1.55868   1.56624   1.65033
 Alpha virt. eigenvalues --    1.65054   1.67177   1.72420   1.75921   1.76432
 Alpha virt. eigenvalues --    1.78937   1.80704   1.82759   1.88699   1.90328
 Alpha virt. eigenvalues --    1.90757   1.97524   2.03522   2.07683   2.12727
 Alpha virt. eigenvalues --    2.15212   2.26588   2.31932   2.36699   2.38078
 Alpha virt. eigenvalues --    2.55716   2.70591   2.79298   3.21701   3.30261
 Alpha virt. eigenvalues --    3.33124   3.36164   3.40810   3.47968   3.55439
 Alpha virt. eigenvalues --    3.72326   3.72359   3.95489   3.95920   4.05084
 Alpha virt. eigenvalues --    4.10705   4.14611   4.39164   4.52588   4.73477
 Alpha virt. eigenvalues --    4.97007   5.99990   6.00336   6.35506   6.37696
 Alpha virt. eigenvalues --    6.68740  23.90307  27.36520
          Condensed to atoms (all electrons):
               1          2          3
     1  O    8.309079   0.183931  -0.081248
     2  S    0.183931  14.913545   0.365397
     3  S   -0.081248   0.365397  15.841217
 Mulliken charges:
               1
     1  O   -0.411762
     2  S    0.537128
     3  S   -0.125366
 Sum of Mulliken charges =  -0.00000
 Mulliken charges with hydrogens summed into heavy atoms:
               1
     1  O   -0.411762
     2  S    0.537128
     3  S   -0.125366
 Electronic spatial extent (au):  <R**2>=            272.3699
 Charge=              0.0000 electrons
 Dipole moment (field-independent basis, Debye):
    X=             -1.6173    Y=              0.3578    Z=              0.0000  Tot=              1.6564
 Quadrupole moment (field-independent basis, Debye-Ang):
   XX=            -34.9142   YY=            -30.3916   ZZ=            -29.0318
   XY=             -1.1850   XZ=              0.0000   YZ=              0.0000
 Traceless Quadrupole moment (field-independent basis, Debye-Ang):
   XX=             -3.4683   YY=              1.0542   ZZ=              2.4141
   XY=             -1.1850   XZ=              0.0000   YZ=              0.0000
 Octapole moment (field-independent basis, Debye-Ang**2):
  XXX=              0.2130  YYY=              3.2574  ZZZ=              0.0000  XYY=             -1.6733
  XXY=             -1.5593  XXZ=              0.0000  XZZ=              1.7281  YZZ=              2.0811
  YYZ=              0.0000  XYZ=              0.0000
 Hexadecapole moment (field-independent basis, Debye-Ang**3):
 XXXX=           -163.3137 YYYY=           -177.4459 ZZZZ=            -34.0804 XXXY=            -54.5640
 XXXZ=              0.0000 YYYX=            -46.3012 YYYZ=              0.0000 ZZZX=              0.0000
 ZZZY=              0.0000 XXYY=            -56.2936 XXZZ=            -30.8309 YYZZ=            -34.6965
 XXYZ=              0.0000 YYXZ=              0.0000 ZZXY=            -16.0838
 N-N= 1.410040348272D+02 E-N=-2.354009664909D+03  KE= 8.707954403842D+02
 Symmetry A'   KE= 7.923816625514D+02
 Symmetry A"   KE= 7.841377783272D+01
 1\1\GINC-GAMBA\FOpt\RB3LYP\Gen\O1S2\IRIKURA\12-Sep-2023\0\\# b3lyp/gen
  opt freq\\disulfur monoxide, B3LYP/pcseg-2\\0,1\O,1.4615734304,0.8043
 783117,0.\S,0.0028615699,0.6784512907,0.\S,-0.7266520003,-1.0768066024
 ,0.\\Version=ES64L-G16RevB.01\State=1-A'\HF=-871.6880798\RMSD=4.506e-0
 9\RMSF=9.044e-05\Dipole=-0.6362684,0.1408171,0.\Quadrupole=-2.5787744,
 0.7839696,1.7948048,-0.880699,0.,0.\PG=CS [SG(O1S2)]\\@


 Ideas are like rabbits. You get a couple and learn
 how to handle them, and pretty soon you have a dozen.
                                    -- John Steinbeck
 Job cpu time:       0 days  0 hours  0 minutes 44.6 seconds.
 Elapsed time:       0 days  0 hours  0 minutes 44.1 seconds.
 File lengths (MBytes):  RWF=     10 Int=      0 D2E=      0 Chk=      2 Scr=      1
 Normal termination of Gaussian 16 at Tue Sep 12 11:25:17 2023.
 Link1:  Proceeding to internal job step number  2.
 ------------------------------------------------------------------
 #N Geom=AllCheck Guess=TCheck SCRF=Check GenChk RB3LYP/ChkBas Freq
 ------------------------------------------------------------------
 1/10=4,29=7,30=1,38=1,40=1/1,3;
 2/12=2,40=1/2;
 3/5=7,6=2,11=2,14=-4,25=1,30=1,67=1,70=2,71=2,74=-5,82=7,116=1,140=1/1,2,3;
 4/5=101/1;
 5/5=2,38=6,98=1/2;
 8/6=4,10=90,11=11/1;
 11/6=1,8=1,9=11,15=111,16=1/1,2,10;
 10/6=1/2;
 6/7=2,8=2,9=2,10=2,28=1/1;
 7/8=1,10=1,25=1/1,2,3,16;
 1/10=4,30=1/3;
 99//99;
 Structure from the checkpoint file:  "/wrk/irikura/Gau-337370.chk"
 --------------------------------
 disulfur monoxide, B3LYP/pcseg-2
 --------------------------------
 Charge =  0 Multiplicity = 1
 Redundant internal coordinates found in file.  (old form).
 O,0,1.4615734304,0.8043783117,0.
 S,0,0.0028615699,0.6784512907,0.
 S,0,-0.7266520003,-1.0768066024,0.
 Recover connectivity data from disk.

 GradGradGradGradGradGradGradGradGradGradGradGradGradGradGradGradGradGrad
 Berny optimization.
 Initialization pass.
                           ----------------------------
                           !    Initial Parameters    !
                           ! (Angstroms and Degrees)  !
 --------------------------                            --------------------------
 ! Name  Definition              Value          Derivative Info.                !
 --------------------------------------------------------------------------------
 ! R1    R(1,2)                  1.4641         calculate D2E/DX2 analytically  !
 ! R2    R(2,3)                  1.9008         calculate D2E/DX2 analytically  !
 ! A1    A(1,2,3)              117.5025         calculate D2E/DX2 analytically  !
 --------------------------------------------------------------------------------
 Trust Radius=3.00D-01 FncErr=1.00D-07 GrdErr=1.00D-07 EigMax=2.50D+02 EigMin=1.00D-04
 Number of steps in this run=      2 maximum allowed number of steps=      2.
 GradGradGradGradGradGradGradGradGradGradGradGradGradGradGradGradGradGrad

                          Input orientation:                          
 ---------------------------------------------------------------------
 Center     Atomic      Atomic             Coordinates (Angstroms)
 Number     Number       Type             X           Y           Z
 ---------------------------------------------------------------------
      1          8           0        1.461573    0.804378    0.000000
      2         16           0        0.002862    0.678451    0.000000
      3         16           0       -0.726652   -1.076807    0.000000
 ---------------------------------------------------------------------
                    Distance matrix (angstroms):
                    1          2          3
     1  O    0.000000
     2  S    1.464137   0.000000
     3  S    2.885687   1.900821   0.000000
 Stoichiometry    OS2
 Framework group  CS[SG(OS2)]
 Deg. of freedom     3
 Full point group                 CS      NOp   2
 Largest Abelian subgroup         CS      NOp   2
 Largest concise Abelian subgroup C1      NOp   1
                         Standard orientation:                         
 ---------------------------------------------------------------------
 Center     Atomic      Atomic             Coordinates (Angstroms)
 Number     Number       Type             X           Y           Z
 ---------------------------------------------------------------------
      1          8           0        1.458700    0.802981    0.000000
      2         16           0        0.000000    0.676918    0.000000
      3         16           0       -0.729350   -1.078408    0.000000
 ---------------------------------------------------------------------
 Rotational constants (GHZ):          40.8827522           5.0124026           4.4649771
 Basis read from chk: "/wrk/irikura/Gau-337370.chk" (5D, 7F)
 There are    78 symmetry adapted cartesian basis functions of A'  symmetry.
 There are    35 symmetry adapted cartesian basis functions of A"  symmetry.
 There are    66 symmetry adapted basis functions of A'  symmetry.
 There are    32 symmetry adapted basis functions of A"  symmetry.
    98 basis functions,   191 primitive gaussians,   113 cartesian basis functions
    20 alpha electrons       20 beta electrons
       nuclear repulsion energy       141.0040348272 Hartrees.
 NAtoms=    3 NActive=    3 NUniq=    3 SFac= 1.00D+00 NAtFMM=   60 NAOKFM=F Big=F
 Integral buffers will be    131072 words long.
 Raffenetti 2 integral format.
 Two-electron integral symmetry is turned on.
 One-electron integrals computed using PRISM.
 NBasis=    98 RedAO= T EigKep=  5.26D-03  NBF=    66    32
 NBsUse=    98 1.00D-06 EigRej= -1.00D+00 NBFU=    66    32
 Initial guess from the checkpoint file:  "/wrk/irikura/Gau-337370.chk"
 B after Tr=     0.000000   -0.000000    0.000000
         Rot=    1.000000    0.000000    0.000000    0.000000 Ang=   0.00 deg.
 Initial guess orbital symmetries:
       Occupied  (A') (A') (A') (A') (A') (A") (A') (A') (A') (A")
                 (A') (A') (A') (A') (A') (A") (A') (A") (A') (A')
       Virtual   (A") (A') (A') (A') (A') (A") (A') (A") (A') (A')
                 (A") (A') (A") (A') (A') (A") (A') (A") (A') (A')
                 (A') (A") (A') (A') (A') (A") (A') (A") (A') (A')
                 (A") (A') (A") (A') (A") (A') (A") (A') (A') (A")
                 (A') (A') (A") (A') (A') (A") (A') (A') (A") (A')
                 (A") (A') (A') (A") (A') (A") (A') (A') (A") (A')
                 (A") (A') (A') (A") (A') (A") (A') (A') (A") (A')
                 (A') (A") (A') (A") (A') (A') (A') (A')
 Keep R1 ints in memory in symmetry-blocked form, NReq=17764135.
 Requested convergence on RMS density matrix=1.00D-08 within 128 cycles.
 Requested convergence on MAX density matrix=1.00D-06.
 Requested convergence on             energy=1.00D-06.
 No special actions if energy rises.
 SCF Done:  E(RB3LYP) =  -871.688079820     A.U. after    1 cycles
            NFock=  1  Conv=0.34D-08     -V/T= 2.0010
 DoSCS=F DFT=T ScalE2(SS,OS)=  1.000000  1.000000
 Range of M.O.s used for correlation:     1    98
 NBasis=    98 NAE=    20 NBE=    20 NFC=     0 NFV=     0
 NROrb=     98 NOA=    20 NOB=    20 NVA=    78 NVB=    78
 Symmetrizing basis deriv contribution to polar:
 IMax=3 JMax=2 DiffMx= 0.00D+00
 G2DrvN: will do     4 centers at a time, making    1 passes.
 Calling FoFCou, ICntrl=  3107 FMM=F I1Cent=   0 AccDes= 0.00D+00.
 End of G2Drv F.D. properties file   721 does not exist.
 End of G2Drv F.D. properties file   722 does not exist.
 End of G2Drv F.D. properties file   788 does not exist.
          IDoAtm=111
          Differentiating once with respect to electric field.
                with respect to dipole field.
          Differentiating once with respect to nuclear coordinates.
 Keep R1 ints in memory in symmetry-blocked form, NReq=17765755.
          There are    12 degrees of freedom in the 1st order CPHF.  IDoFFX=6 NUNeed=     3.
      9 vectors produced by pass  0 Test12= 1.30D-14 8.33D-09 XBig12= 8.32D+01 7.34D+00.
 AX will form     9 AO Fock derivatives at one time.
      9 vectors produced by pass  1 Test12= 1.30D-14 8.33D-09 XBig12= 3.99D+01 1.97D+00.
      9 vectors produced by pass  2 Test12= 1.30D-14 8.33D-09 XBig12= 1.22D+00 2.86D-01.
      9 vectors produced by pass  3 Test12= 1.30D-14 8.33D-09 XBig12= 2.47D-02 4.66D-02.
      9 vectors produced by pass  4 Test12= 1.30D-14 8.33D-09 XBig12= 2.76D-04 4.86D-03.
      9 vectors produced by pass  5 Test12= 1.30D-14 8.33D-09 XBig12= 1.34D-06 3.10D-04.
      9 vectors produced by pass  6 Test12= 1.30D-14 8.33D-09 XBig12= 6.82D-09 2.39D-05.
      4 vectors produced by pass  7 Test12= 1.30D-14 8.33D-09 XBig12= 1.52D-11 8.99D-07.
      2 vectors produced by pass  8 Test12= 1.30D-14 8.33D-09 XBig12= 3.14D-14 3.19D-08.
 InvSVY:  IOpt=1 It=  1 EMax= 8.88D-16
 Solved reduced A of dimension    69 with     9 vectors.
 Isotropic polarizability for W=    0.000000       35.78 Bohr**3.
 End of Minotr F.D. properties file   721 does not exist.
 End of Minotr F.D. properties file   722 does not exist.
 End of Minotr F.D. properties file   788 does not exist.

 **********************************************************************

            Population analysis using the SCF Density.

 **********************************************************************

 Orbital symmetries:
       Occupied  (A') (A') (A') (A') (A') (A") (A') (A') (A') (A")
                 (A') (A') (A') (A') (A') (A") (A') (A") (A') (A')
       Virtual   (A") (A') (A') (A') (A') (A") (A') (A") (A') (A')
                 (A") (A') (A") (A') (A') (A") (A') (A") (A') (A')
                 (A') (A") (A') (A') (A') (A") (A') (A") (A') (A')
                 (A") (A') (A") (A') (A") (A') (A") (A') (A') (A")
                 (A') (A') (A") (A') (A') (A") (A') (A') (A") (A')
                 (A") (A') (A') (A") (A') (A") (A') (A') (A") (A')
                 (A") (A') (A') (A") (A') (A") (A') (A') (A") (A')
                 (A') (A") (A') (A") (A') (A') (A') (A')
 The electronic state is 1-A'.
 Alpha  occ. eigenvalues --  -89.00042 -88.87820 -19.17500  -8.07766  -7.97120
 Alpha  occ. eigenvalues --   -6.03985  -6.03882  -6.03439  -5.93262  -5.93192
 Alpha  occ. eigenvalues --   -5.92544  -1.09423  -0.82638  -0.61533  -0.47048
 Alpha  occ. eigenvalues --   -0.46178  -0.46116  -0.32222  -0.31855  -0.29175
 Alpha virt. eigenvalues --   -0.15770  -0.01114   0.01421   0.16935   0.19418
 Alpha virt. eigenvalues --    0.19651   0.22584   0.25786   0.26958   0.31774
 Alpha virt. eigenvalues --    0.33616   0.34964   0.35711   0.37364   0.45278
 Alpha virt. eigenvalues --    0.48513   0.48866   0.54775   0.55893   0.59751
 Alpha virt. eigenvalues --    0.67378   0.69480   0.73445   0.91006   1.02550
 Alpha virt. eigenvalues --    1.37959   1.39214   1.55868   1.56624   1.65033
 Alpha virt. eigenvalues --    1.65054   1.67177   1.72420   1.75921   1.76432
 Alpha virt. eigenvalues --    1.78937   1.80704   1.82759   1.88699   1.90328
 Alpha virt. eigenvalues --    1.90757   1.97524   2.03522   2.07683   2.12727
 Alpha virt. eigenvalues --    2.15212   2.26588   2.31932   2.36699   2.38078
 Alpha virt. eigenvalues --    2.55716   2.70591   2.79298   3.21701   3.30261
 Alpha virt. eigenvalues --    3.33124   3.36164   3.40810   3.47968   3.55439
 Alpha virt. eigenvalues --    3.72326   3.72359   3.95489   3.95920   4.05084
 Alpha virt. eigenvalues --    4.10705   4.14611   4.39164   4.52588   4.73477
 Alpha virt. eigenvalues --    4.97007   5.99990   6.00336   6.35506   6.37696
 Alpha virt. eigenvalues --    6.68740  23.90307  27.36520
          Condensed to atoms (all electrons):
               1          2          3
     1  O    8.309079   0.183931  -0.081248
     2  S    0.183931  14.913545   0.365397
     3  S   -0.081248   0.365397  15.841216
 Mulliken charges:
               1
     1  O   -0.411762
     2  S    0.537127
     3  S   -0.125365
 Sum of Mulliken charges =   0.00000
 Mulliken charges with hydrogens summed into heavy atoms:
               1
     1  O   -0.411762
     2  S    0.537127
     3  S   -0.125365
 APT charges:
               1
     1  O   -0.593897
     2  S    0.927296
     3  S   -0.333399
 Sum of APT charges =  -0.00000
 APT charges with hydrogens summed into heavy atoms:
               1
     1  O   -0.593897
     2  S    0.927296
     3  S   -0.333399
 Electronic spatial extent (au):  <R**2>=            272.3699
 Charge=              0.0000 electrons
 Dipole moment (field-independent basis, Debye):
    X=             -1.6173    Y=              0.3578    Z=              0.0000  Tot=              1.6564
 Quadrupole moment (field-independent basis, Debye-Ang):
   XX=            -34.9142   YY=            -30.3916   ZZ=            -29.0318
   XY=             -1.1850   XZ=              0.0000   YZ=              0.0000
 Traceless Quadrupole moment (field-independent basis, Debye-Ang):
   XX=             -3.4683   YY=              1.0542   ZZ=              2.4141
   XY=             -1.1850   XZ=              0.0000   YZ=              0.0000
 Octapole moment (field-independent basis, Debye-Ang**2):
  XXX=              0.2130  YYY=              3.2574  ZZZ=              0.0000  XYY=             -1.6733
  XXY=             -1.5593  XXZ=              0.0000  XZZ=              1.7281  YZZ=              2.0811
  YYZ=              0.0000  XYZ=              0.0000
 Hexadecapole moment (field-independent basis, Debye-Ang**3):
 XXXX=           -163.3137 YYYY=           -177.4459 ZZZZ=            -34.0804 XXXY=            -54.5640
 XXXZ=              0.0000 YYYX=            -46.3012 YYYZ=              0.0000 ZZZX=              0.0000
 ZZZY=              0.0000 XXYY=            -56.2936 XXZZ=            -30.8309 YYZZ=            -34.6965
 XXYZ=              0.0000 YYXZ=              0.0000 ZZXY=            -16.0838
 N-N= 1.410040348272D+02 E-N=-2.354009666120D+03  KE= 8.707954409233D+02
 Symmetry A'   KE= 7.923816628741D+02
 Symmetry A"   KE= 7.841377804918D+01
  Exact polarizability:  38.968  17.301  49.596  -0.000   0.000  18.781
 Approx polarizability:  87.646  57.277 117.717  -0.000  -0.000  31.493
 Calling FoFJK, ICntrl=    100127 FMM=F ISym2X=1 I1Cent= 0 IOpClX= 0 NMat=1 NMatS=1 NMatT=0.
 Full mass-weighted force constant matrix:
 Low frequencies ---   -9.4465   -5.3332    0.0042    0.0047    0.0053    7.7213
 Low frequencies ---  384.6927  682.6965 1184.0211
 Diagonal vibrational polarizability:
        3.0705065       5.1522585       0.0000000
 Harmonic frequencies (cm**-1), IR intensities (KM/Mole), Raman scattering
 activities (A**4/AMU), depolarization ratios for plane and unpolarized
 incident light, reduced masses (AMU), force constants (mDyne/A),
 and normal coordinates:
                      1                      2                      3
                     A'                     A'                     A'
 Frequencies --    384.6926               682.6965              1184.0211
 Red. masses --     21.0405                30.8178                19.3798
 Frc consts  --      1.8346                 8.4627                16.0073
 IR Inten    --     10.1076                52.1903               175.6216
  Atom  AN      X      Y      Z        X      Y      Z        X      Y      Z
     1   8     0.20   0.80   0.00     0.25  -0.10   0.00     0.88   0.08   0.00
     2  16     0.28  -0.26   0.00     0.09   0.69   0.00    -0.45  -0.07   0.00
     3  16    -0.38  -0.14   0.00    -0.21  -0.64   0.00     0.01   0.03   0.00

 -------------------
 - Thermochemistry -
 -------------------
 Temperature   298.150 Kelvin.  Pressure   1.00000 Atm.
 Atom     1 has atomic number  8 and mass  15.99491
 Atom     2 has atomic number 16 and mass  31.97207
 Atom     3 has atomic number 16 and mass  31.97207
 Molecular mass:    79.93906 amu.
 Principal axes and moments of inertia in atomic units:
                           1         2         3
     Eigenvalues --    44.14432 360.05512 404.19943
           X            0.66124   0.75017   0.00000
           Y            0.75017  -0.66124   0.00000
           Z            0.00000  -0.00000   1.00000
 This molecule is an asymmetric top.
 Rotational symmetry number  1.
 Rotational temperatures (Kelvin)      1.96206     0.24056     0.21429
 Rotational constants (GHZ):          40.88275     5.01240     4.46498
 Zero-point vibrational energy      13466.4 (Joules/Mol)
                                    3.21855 (Kcal/Mol)
 Warning -- explicit consideration of   1 degrees of freedom as
           vibrations may cause significant error
 Vibrational temperatures:    553.49   982.25  1703.54
          (Kelvin)
 
 Zero-point correction=                           0.005129 (Hartree/Particle)
 Thermal correction to Energy=                    0.008424
 Thermal correction to Enthalpy=                  0.009368
 Thermal correction to Gibbs Free Energy=        -0.020955
 Sum of electronic and zero-point Energies=           -871.682951
 Sum of electronic and thermal Energies=              -871.679656
 Sum of electronic and thermal Enthalpies=            -871.678712
 Sum of electronic and thermal Free Energies=         -871.709035
 
                     E (Thermal)             CV                S
                      KCal/Mol        Cal/Mol-Kelvin    Cal/Mol-Kelvin
 Total                    5.286              8.543             63.821
 Electronic               0.000              0.000              0.000
 Translational            0.889              2.981             39.051
 Rotational               0.889              2.981             23.378
 Vibrational              3.509              2.581              1.392
 Vibration     1          0.754              1.503              1.021
                       Q            Log10(Q)             Ln(Q)
 Total Bot       0.435280D+10          9.638769         22.194086
 Total V=0       0.995370D+12         11.997984         27.626380
 Vib (Bot)       0.540022D-02         -2.267589         -5.221316
 Vib (Bot)    1  0.468452D+00         -0.329335         -0.758323
 Vib (V=0)       0.123489D+01          0.091627          0.210978
 Vib (V=0)    1  0.118516D+01          0.073778          0.169879
 Electronic      0.100000D+01          0.000000          0.000000
 Translational   0.280926D+08          7.448592         17.151018
 Rotational      0.286923D+05          4.457765         10.264384
 ***** Axes restored to original set *****
 -------------------------------------------------------------------
 Center     Atomic                   Forces (Hartrees/Bohr)
 Number     Number              X              Y              Z
 -------------------------------------------------------------------
      1        8           0.000167345    0.000076656   -0.000000000
      2       16          -0.000138984   -0.000129818   -0.000000000
      3       16          -0.000028362    0.000053162   -0.000000000
 -------------------------------------------------------------------
 Cartesian Forces:  Max     0.000167345 RMS     0.000090480
 FormGI is forming the generalized inverse of G from B-inverse, IUseBI=4.

 GradGradGradGradGradGradGradGradGradGradGradGradGradGradGradGradGradGrad
 Berny optimization.
 Internal  Forces:  Max     0.000173579 RMS     0.000141957
 Search for a local minimum.
 Step number   1 out of a maximum of    2
 All quantities printed in internal units (Hartrees-Bohrs-Radians)
 Second derivative matrix not updated -- analytic derivatives used.
 The second derivative matrix:
                          R1        R2        A1
           R1           0.56530
           R2           0.01871   0.28461
           A1           0.02706   0.01462   0.33589
 ITU=  0
     Eigenvalues ---    0.28027   0.33564   0.56990
 Angle between quadratic step and forces=  16.92 degrees.
 Linear search not attempted -- first point.
 Iteration  1 RMS(Cart)=  0.00047503 RMS(Int)=  0.00000009
 Iteration  2 RMS(Cart)=  0.00000007 RMS(Int)=  0.00000000
 ClnCor:  largest displacement from symmetrization is 4.97D-16 for atom     1.
 Variable       Old X    -DE/DX   Delta X   Delta X   Delta X     New X
                                 (Linear)    (Quad)   (Total)
    R1        2.76682   0.00017   0.00000   0.00029   0.00029   2.76711
    R2        3.59203  -0.00004   0.00000  -0.00018  -0.00018   3.59185
    A1        2.05081   0.00017   0.00000   0.00049   0.00049   2.05130
         Item               Value     Threshold  Converged?
 Maximum Force            0.000174     0.000450     YES
 RMS     Force            0.000142     0.000300     YES
 Maximum Displacement     0.000479     0.001800     YES
 RMS     Displacement     0.000475     0.001200     YES
 Predicted change in Energy=-7.019620D-08
 Optimization completed.
    -- Stationary point found.
                           ----------------------------
                           !   Optimized Parameters   !
                           ! (Angstroms and Degrees)  !
 --------------------------                            --------------------------
 ! Name  Definition              Value          Derivative Info.                !
 --------------------------------------------------------------------------------
 ! R1    R(1,2)                  1.4641         -DE/DX =    0.0002              !
 ! R2    R(2,3)                  1.9008         -DE/DX =    0.0                 !
 ! A1    A(1,2,3)              117.5025         -DE/DX =    0.0002              !
 --------------------------------------------------------------------------------
 GradGradGradGradGradGradGradGradGradGradGradGradGradGradGradGradGradGrad


 ----------------------------------------------------------------------

 Electric dipole moment (input orientation):
 (Debye = 10**-18 statcoulomb cm , SI units = C m)
                  (au)            (Debye)         (10**-30 SI)
   Tot        0.651665D+00      0.165637D+01      0.552505D+01
   x         -0.636269D+00     -0.161724D+01     -0.539452D+01
   y          0.140815D+00      0.357915D+00      0.119388D+01
   z          0.000000D+00      0.000000D+00      0.000000D+00

 Dipole polarizability, Alpha (input orientation).
 (esu units = cm**3 , SI units = C**2 m**2 J**-1)
 Alpha(0;0):
               (au)            (10**-24 esu)      (10**-40 SI)
   iso        0.357815D+02      0.530227D+01      0.589957D+01
   aniso      0.404109D+02      0.598828D+01      0.666287D+01
   xx         0.389709D+02      0.577489D+01      0.642543D+01
   yx         0.173024D+02      0.256394D+01      0.285277D+01
   yy         0.495929D+02      0.734891D+01      0.817677D+01
   zx         0.000000D+00      0.000000D+00      0.000000D+00
   zy         0.000000D+00      0.000000D+00      0.000000D+00
   zz         0.187807D+02      0.278301D+01      0.309652D+01

 ----------------------------------------------------------------------

 Dipole orientation:
     8          0.44966346          2.03179892         -2.36826093
    16          0.27074637          1.22336421          0.27175918
    16         -0.49343225         -2.22956767          0.90102808

 Electric dipole moment (dipole orientation):
 (Debye = 10**-18 statcoulomb cm , SI units = C m)
                  (au)            (Debye)         (10**-30 SI)
   Tot        0.651665D+00      0.165637D+01      0.552505D+01
   x          0.000000D+00      0.000000D+00      0.000000D+00
   y          0.000000D+00      0.000000D+00      0.000000D+00
   z          0.651665D+00      0.165637D+01      0.552505D+01

 Dipole polarizability, Alpha (dipole orientation).
 (esu units = cm**3 , SI units = C**2 m**2 J**-1)
 Alpha(0;0):
               (au)            (10**-24 esu)      (10**-40 SI)
   iso        0.357815D+02      0.530227D+01      0.589957D+01
   aniso      0.404109D+02      0.598828D+01      0.666287D+01
   xx         0.205371D+02      0.304329D+01      0.338612D+01
   yx         0.793643D+01      0.117606D+01      0.130854D+01
   yy         0.546414D+02      0.809702D+01      0.900915D+01
   zx        -0.290537D+01     -0.430532D+00     -0.479031D+00
   zy        -0.131279D+02     -0.194535D+01     -0.216450D+01
   zz         0.321660D+02      0.476650D+01      0.530345D+01

 ----------------------------------------------------------------------
 1\1\GINC-GAMBA\Freq\RB3LYP\Gen\O1S2\IRIKURA\12-Sep-2023\0\\#N Geom=All
 Check Guess=TCheck SCRF=Check GenChk RB3LYP/ChkBas Freq\\disulfur mono
 xide, B3LYP/pcseg-2\\0,1\O,1.4615734304,0.8043783117,0.\S,0.0028615699
 ,0.6784512907,0.\S,-0.7266520003,-1.0768066024,0.\\Version=ES64L-G16Re
 vB.01\State=1-A'\HF=-871.6880798\RMSD=3.426e-09\RMSF=9.048e-05\ZeroPoi
 nt=0.0051291\Thermal=0.0084239\Dipole=-0.6362693,0.1408147,0.\DipoleDe
 riv=-1.0629038,-0.5950077,0.,-0.0261748,-0.4573494,0.,0.,0.,-0.2614371
 ,1.3221804,0.7319299,0.,0.4167194,1.1370601,0.,0.,0.,0.3226479,-0.2592
 766,-0.1369222,0.,-0.3905446,-0.6797107,0.,0.,0.,-0.0612107\Polar=38.9
 708589,17.3023516,49.5929039,0.,0.,18.780711\Quadrupole=-2.5787765,0.7
 839717,1.7948047,-0.8806981,0.,0.\PG=CS [SG(O1S2)]\NImag=0\\0.55977181
 ,0.05434075,0.04934195,0.,0.,-0.00004305,-0.54853658,-0.02000849,0.,0.
 60433001,-0.03931116,-0.05617030,0.,0.09949564,0.30662335,0.,0.,0.0000
 2529,0.,0.,0.00002135,-0.01123523,-0.03433226,0.,-0.05579344,-0.060184
 48,0.,0.06702867,-0.01502958,0.00682836,0.,-0.07948715,-0.25045305,0.,
 0.09451673,0.24362469,0.,0.,0.00001776,0.,0.,-0.00004663,0.,0.,0.00002
 887\\-0.00016735,-0.00007666,0.,0.00013898,0.00012982,0.,0.00002836,-0
 .00005316,0.\\\@


 MORNING PEOPLE ARE USUALLY ADMIRED AS EARLY BIRDS.
 RECALL BEN FRANKLIN'S APHORISM THAT THE EARLY BIRD GETS THE WORM.
 I IDENTIFY WITH THE WORM. --  CRAIG JAGGER, MINNEAPOLIS, KS.
 Job cpu time:       0 days  0 hours  0 minutes 41.9 seconds.
 Elapsed time:       0 days  0 hours  0 minutes 41.7 seconds.
 File lengths (MBytes):  RWF=     10 Int=      0 D2E=      0 Chk=      2 Scr=      1
 Normal termination of Gaussian 16 at Tue Sep 12 11:25:59 2023.
