 Entering Gaussian System, Link 0=g16
 AtFile(1): pcseg2.gbs
            -H     0
            S   4   1.00
                  0.754732D+02           0.427821D-02
                  0.113575D+02           0.328672D-01
                  0.260081D+01           0.159578D+00
                  0.735503D+00           0.500000D+00
            S   1   1.00
                  0.231761D+00           1.0000000
            S   1   1.00
                  0.741675D-01           1.0000000
            P   1   1.00
                  0.160000D+01           1.0000000
            P   1   1.00
                  0.450000D+00           1.0000000
            D   1   1.00
                  0.125000D+01           1.0000000
            ****
            -C     0
            S   7   1.00
                  0.731999D+04           0.695369D-03
                  0.109818D+04           0.537138D-02
                  0.250014D+03           0.274734D-01
                  0.707586D+02           0.105078D+00
                  0.228595D+02           0.291262D+00
                  0.803936D+01           0.500000D+00
                  0.289309D+01           0.362224D+00
            S   2   1.00
                  0.521640D+01          -0.957844D-01
                  0.556124D+00           0.500000D+00
            S   1   1.00
                  0.228813D+00           1.0000000
            S   1   1.00
                  0.936338D-01           1.0000000
            P   4   1.00
                  0.339855D+02           0.818395D-02
                  0.772957D+01           0.586921D-01
                  0.224954D+01           0.222514D+00
                  0.767681D+00           0.500000D+00
            P   1   1.00
                  0.263283D+00           1.0000000
            P   1   1.00
                  0.848744D-01           1.0000000
            D   1   1.00
                  0.140000D+01           1.0000000
            D   1   1.00
                  0.450000D+00           1.0000000
            F   1   1.00
                  0.950000D+00           1.0000000
            ****
            -O     0
            S   7   1.00
                  0.135887D+05           0.665492D-03
                  0.203847D+04           0.514222D-02
                  0.464041D+03           0.263472D-01
                  0.131339D+03           0.101500D+00
                  0.425340D+02           0.285877D+00
                  0.150429D+02           0.500000D+00
                  0.546616D+01           0.368211D+00
            S   2   1.00
                  0.100915D+02          -0.100084D+00
                  0.110429D+01           0.500000D+00
            S   1   1.00
                  0.448082D+00           1.0000000
            S   1   1.00
                  0.175325D+00           1.0000000
            P   4   1.00
                  0.608220D+02           0.908253D-02
                  0.140332D+02           0.645878D-01
                  0.418244D+01           0.241502D+00
                  0.142490D+01           0.500000D+00
            P   1   1.00
                  0.478741D+00           1.0000000
            P   1   1.00
                  0.146257D+00           1.0000000
            D   1   1.00
                  0.220000D+01           1.0000000
            D   1   1.00
                  0.650000D+00           1.0000000
            F   1   1.00
                  0.110000D+01           1.0000000
            ****
            -N     0
            S   7   1.00
                  0.101643D+05           0.682757D-03
                  0.152481D+04           0.527488D-02
                  0.347119D+03           0.270037D-01
                  0.982389D+02           0.103673D+00
                  0.317799D+02           0.289575D+00
                  0.112240D+02           0.500000D+00
                  0.406611D+01           0.364621D+00
            S   2   1.00
                  0.747898D+01          -0.975681D-01
                  0.805040D+00           0.500000D+00
            S   1   1.00
                  0.324626D+00           1.0000000
            S   1   1.00
                  0.128132D+00           1.0000000
            P   4   1.00
                  0.482704D+02           0.829547D-02
                  0.110815D+02           0.596223D-01
                  0.326643D+01           0.227889D+00
                  0.111680D+01           0.500000D+00
            P   1   1.00
                  0.382049D+00           1.0000000
            P   1   1.00
                  0.121222D+00           1.0000000
            D   1   1.00
                  0.180000D+01           1.0000000
            D   1   1.00
                  0.550000D+00           1.0000000
            F   1   1.00
                  0.102000D+01           1.0000000
            ****
            -F     0
            S   7   1.00
                  0.174507D+05           0.655972D-03
                  0.261768D+04           0.506944D-02
                  0.595857D+03           0.259899D-01
                  0.168651D+03           0.100353D+00
                  0.546654D+02           0.284095D+00
                  0.193717D+02           0.500000D+00
                  0.706202D+01           0.370721D+00
            S   2   1.00
                  0.131197D+02          -0.101997D+00
                  0.145046D+01           0.500000D+00
            S   1   1.00
                  0.588255D+00           1.0000000
            S   1   1.00
                  0.227960D+00           1.0000000
            P   4   1.00
                  0.779407D+02           0.931135D-02
                  0.180425D+02           0.663964D-01
                  0.542342D+01           0.246386D+00
                  0.184876D+01           0.500000D+00
            P   1   1.00
                  0.617455D+00           1.0000000
            P   1   1.00
                  0.185496D+00           1.0000000
            D   1   1.00
                  0.280000D+01           1.0000000
            D   1   1.00
                  0.800000D+00           1.0000000
            F   1   1.00
                  0.120000D+01           1.0000000
            ****
            -Cl     0
            S   8   1.00
                  0.154272D+06           0.222473D-03
                  0.231232D+05           0.172590D-02
                  0.526257D+04           0.899286D-02
                  0.148995D+04           0.367724D-01
                  0.485417D+03           0.121446D+00
                  0.174634D+03           0.304148D+00
                  0.672393D+02           0.500000D+00
                  0.265780D+02           0.360252D+00
            S   3   1.00
                  0.131826D+03          -0.531330D-01
                  0.400703D+02          -0.233346D+00
                  0.789448D+01           0.500000D+00
            S   2   1.00
                  0.427711D+01           0.500000D+00
                  0.196233D+01           0.370517D+00
            S   1   1.00
                  0.520793D+00           1.0000000
            S   1   1.00
                  0.181633D+00           1.0000000
            P   7   1.00
                  0.124440D+04           0.988206D-03
                  0.295109D+03           0.829674D-02
                  0.947224D+02           0.430906D-01
                  0.352588D+02           0.148443D+00
                  0.144211D+02           0.344744D+00
                  0.610371D+01           0.500000D+00
                  0.258886D+01           0.348278D+00
            P   2   1.00
                  0.109447D+02          -0.196768D-01
                  0.104413D+01           0.500000D+00
            P   1   1.00
                  0.376184D+00           1.0000000
            P   1   1.00
                  0.120613D+00           1.0000000
            D   1   1.00
                  0.231000D+01           1.0000000
            D   1   1.00
                  0.520000D+00           1.0000000
            F   1   1.00
                  0.720000D+00           1.0000000
            ****
            -S     0
            S   8   1.00
                  0.134700D+06           0.226231D-03
                  0.201904D+05           0.175488D-02
                  0.459528D+04           0.914190D-02
                  0.130109D+04           0.373551D-01
                  0.423902D+03           0.123121D+00
                  0.152485D+03           0.306801D+00
                  0.586925D+02           0.500000D+00
                  0.231461D+02           0.354358D+00
            S   3   1.00
                  0.116327D+03          -0.491772D-01
                  0.352841D+02          -0.215962D+00
                  0.677831D+01           0.500000D+00
            S   2   1.00
                  0.360404D+01           0.500000D+00
                  0.164871D+01           0.366278D+00
            S   1   1.00
                  0.421821D+00           1.0000000
            S   1   1.00
                  0.147554D+00           1.0000000
            P   7   1.00
                  0.104863D+04           0.105273D-02
                  0.248717D+03           0.879338D-02
                  0.797887D+02           0.453358D-01
                  0.296023D+02           0.154476D+00
                  0.120627D+02           0.352366D+00
                  0.507628D+01           0.500000D+00
                  0.213375D+01           0.346429D+00
            P   2   1.00
                  0.928958D+01          -0.185932D-01
                  0.837819D+00           0.500000D+00
            P   1   1.00
                  0.301495D+00           1.0000000
            P   1   1.00
                  0.974740D-01           1.0000000
            D   1   1.00
                  0.210000D+01           1.0000000
            D   1   1.00
                  0.480000D+00           1.0000000
            F   1   1.00
                  0.660000D+00           1.0000000
            ****
            -Br     0
            S    10   1.00
                  0.233625D+07           0.532336D-04
                  0.349961D+06           0.413715D-03
                  0.796444D+05           0.217123D-02
                  0.225555D+05           0.910109D-02
                  0.735546D+04           0.323789D-01
                  0.265352D+04           0.988755D-01
                  0.103517D+04           0.248138D+00
                  0.422205D+03           0.474328D+00
                  0.180035D+03           0.500000D+00
                  0.793308D+02           0.187769D+00
            S    4   1.00
                  0.620834D+03          -0.226511D-01
                  0.190829D+03          -0.109497D+00
                  0.312505D+02           0.500000D+00
                  0.135270D+02           0.492812D+00
            S    2   1.00
                  0.216097D+02          -0.165418D+00
                  0.372566D+01           0.500000D+00
            S    1   1.00
                  0.169770D+01           1.0000000
            S    1   1.00
                  0.489332D+00           1.0000000
            S    1   1.00
                  0.175712D+00           1.0000000
            P    8   1.00
                  0.960829D+04           0.478974D-03
                  0.227618D+04           0.417853D-02
                  0.736723D+03           0.229315D-01
                  0.281579D+03           0.892653D-01
                  0.118395D+03           0.255288D+00
                  0.527481D+02           0.479074D+00
                  0.245098D+02           0.500000D+00
                  0.112009D+02           0.200944D+00
            P    4   1.00
                  0.587849D+02          -0.189674D-01
                  0.918962D+01           0.264104D+00
                  0.413895D+01           0.500000D+00
                  0.184225D+01           0.319316D+00
            P    1   1.00
                  0.713862D+00           1.0000000
            P    1   1.00
                  0.274232D+00           1.0000000
            P    1   1.00
                  0.944411D-01           1.0000000
            D    7   1.00
                  0.398470D+03           0.204066D-02
                  0.118967D+03           0.175171D-01
                  0.450197D+02           0.829708D-01
                  0.190320D+02           0.236284D+00
                  0.855686D+01           0.428468D+00
                  0.382950D+01           0.500000D+00
                  0.166291D+01           0.349360D+00
            D    1   1.00
                  0.672953D+00           1.0000000
            D    1   1.00
                  0.252000D+00           1.0000000
            F    1   1.00
                  0.530000D+00           1.0000000
            ****
            -Si     0
            S    8   1.00
                  0.996133D+05           0.235546D-03
                  0.149311D+05           0.182707D-02
                  0.339820D+04           0.951425D-02
                  0.962140D+03           0.388172D-01
                  0.313430D+03           0.127328D+00
                  0.112683D+03           0.313522D+00
                  0.433372D+02           0.500000D+00
                  0.170029D+02           0.340347D+00
            S    3   1.00
                  0.884208D+02          -0.404451D-01
                  0.266756D+02          -0.178059D+00
                  0.479640D+01           0.500000D+00
            S    2   1.00
                  0.239385D+01           0.500000D+00
                  0.108333D+01           0.338016D+00
            S    1   1.00
                  0.252420D+00           1.0000000
            S    1   1.00
                  0.891210D-01           1.0000000
            P    7   1.00
                  0.709901D+03           0.123028D-02
                  0.168426D+03           0.101366D-01
                  0.539946D+02           0.511840D-01
                  0.198646D+02           0.169967D+00
                  0.801369D+01           0.370717D+00
                  0.331870D+01           0.500000D+00
                  0.136112D+01           0.344128D+00
            P    2   1.00
                  0.622158D+01          -0.166609D-01
                  0.503049D+00           0.500000D+00
            P    1   1.00
                  0.179848D+00           1.0000000
            P    1   1.00
                  0.591912D-01           1.0000000
            D    1   1.00
                  0.168000D+01           1.0000000
            D    1   1.00
                  0.380000D+00           1.0000000
            F    1   1.00
                  0.540000D+00           1.0000000
            ****
            -P     0
            S    8   1.00
                  0.116416D+06           0.230715D-03
                  0.174500D+05           0.178960D-02
                  0.397149D+04           0.932116D-02
                  0.112447D+04           0.380591D-01
                  0.366347D+03           0.125148D+00
                  0.131757D+03           0.310022D+00
                  0.506988D+02           0.500000D+00
                  0.199436D+02           0.347528D+00
            S    3   1.00
                  0.101878D+03          -0.446755D-01
                  0.308249D+02          -0.196376D+00
                  0.573688D+01           0.500000D+00
            S    2   1.00
                  0.296868D+01           0.500000D+00
                  0.135315D+01           0.355098D+00
            S    1   1.00
                  0.332196D+00           1.0000000
            S    1   1.00
                  0.116229D+00           1.0000000
            P    7   1.00
                  0.873928D+03           0.112375D-02
                  0.207298D+03           0.933330D-02
                  0.664628D+02           0.477213D-01
                  0.245665D+02           0.160733D+00
                  0.996820D+01           0.359760D+00
                  0.416536D+01           0.500000D+00
                  0.173022D+01           0.346593D+00
            P    2   1.00
                  0.772530D+01          -0.175718D-01
                  0.657252D+00           0.500000D+00
            P    1   1.00
                  0.239903D+00           1.0000000
            P    1   1.00
                  0.800988D-01           1.0000000
            D    1   1.00
                  0.189000D+01           1.0000000
            D    1   1.00
                  0.430000D+00           1.0000000
            F    1   1.00
                  0.600000D+00           1.0000000
            ****
            
 Initial command:
 /usr/local/apps/g16_b01_avx/g16/l1.exe "/wrk/irikura/Gau-20935.inp" -scrdir="/wrk/irikura/"
 Entering Link 1 = /usr/local/apps/g16_b01_avx/g16/l1.exe PID=     20937.
  
 Copyright (c) 1988-2017, Gaussian, Inc.  All Rights Reserved.
  
 This is part of the Gaussian(R) 16 program.  It is based on
 the Gaussian(R) 09 system (copyright 2009, Gaussian, Inc.),
 the Gaussian(R) 03 system (copyright 2003, Gaussian, Inc.),
 the Gaussian(R) 98 system (copyright 1998, Gaussian, Inc.),
 the Gaussian(R) 94 system (copyright 1995, Gaussian, Inc.),
 the Gaussian 92(TM) system (copyright 1992, Gaussian, Inc.),
 the Gaussian 90(TM) system (copyright 1990, Gaussian, Inc.),
 the Gaussian 88(TM) system (copyright 1988, Gaussian, Inc.),
 the Gaussian 86(TM) system (copyright 1986, Carnegie Mellon
 University), and the Gaussian 82(TM) system (copyright 1983,
 Carnegie Mellon University). Gaussian is a federally registered
 trademark of Gaussian, Inc.
  
 This software contains proprietary and confidential information,
 including trade secrets, belonging to Gaussian, Inc.
  
 This software is provided under written license and may be
 used, copied, transmitted, or stored only in accord with that
 written license.
  
 The following legend is applicable only to US Government
 contracts under FAR:
  
                    RESTRICTED RIGHTS LEGEND
  
 Use, reproduction and disclosure by the US Government is
 subject to restrictions as set forth in subparagraphs (a)
 and (c) of the Commercial Computer Software - Restricted
 Rights clause in FAR 52.227-19.
  
 Gaussian, Inc.
 340 Quinnipiac St., Bldg. 40, Wallingford CT 06492
  
  
 ---------------------------------------------------------------
 Warning -- This program may not be used in any manner that
 competes with the business of Gaussian, Inc. or will provide
 assistance to any competitor of Gaussian, Inc.  The licensee
 of this program is prohibited from giving any competitor of
 Gaussian, Inc. access to this program.  By using this program,
 the user acknowledges that Gaussian, Inc. is engaged in the
 business of creating and licensing software in the field of
 computational chemistry and represents and warrants to the
 licensee that it is not a competitor of Gaussian, Inc. and that
 it will not use this program in any manner prohibited above.
 ---------------------------------------------------------------
  

 Cite this work as:
 Gaussian 16, Revision B.01,
 M. J. Frisch, G. W. Trucks, H. B. Schlegel, G. E. Scuseria, 
 M. A. Robb, J. R. Cheeseman, G. Scalmani, V. Barone, 
 G. A. Petersson, H. Nakatsuji, X. Li, M. Caricato, A. V. Marenich, 
 J. Bloino, B. G. Janesko, R. Gomperts, B. Mennucci, H. P. Hratchian, 
 J. V. Ortiz, A. F. Izmaylov, J. L. Sonnenberg, D. Williams-Young, 
 F. Ding, F. Lipparini, F. Egidi, J. Goings, B. Peng, A. Petrone, 
 T. Henderson, D. Ranasinghe, V. G. Zakrzewski, J. Gao, N. Rega, 
 G. Zheng, W. Liang, M. Hada, M. Ehara, K. Toyota, R. Fukuda, 
 J. Hasegawa, M. Ishida, T. Nakajima, Y. Honda, O. Kitao, H. Nakai, 
 T. Vreven, K. Throssell, J. A. Montgomery, Jr., J. E. Peralta, 
 F. Ogliaro, M. J. Bearpark, J. J. Heyd, E. N. Brothers, K. N. Kudin, 
 V. N. Staroverov, T. A. Keith, R. Kobayashi, J. Normand, 
 K. Raghavachari, A. P. Rendell, J. C. Burant, S. S. Iyengar, 
 J. Tomasi, M. Cossi, J. M. Millam, M. Klene, C. Adamo, R. Cammi, 
 J. W. Ochterski, R. L. Martin, K. Morokuma, O. Farkas, 
 J. B. Foresman, and D. J. Fox, Gaussian, Inc., Wallingford CT, 2016.
 
 ******************************************
 Gaussian 16:  ES64L-G16RevB.01 20-Dec-2017
                16-Jun-2022 
 ******************************************
 %mem=1000mw
 %nprocs=12
 Will use up to   12 processors via shared memory.
 --------------------
 # b3lyp/gen opt freq
 --------------------
 1/18=20,19=15,26=3,38=1/1,3;
 2/9=110,12=2,17=6,18=5,40=1/2;
 3/5=7,11=2,25=1,30=1,71=1,74=-5/1,2,3;
 4//1;
 5/5=2,38=5/2;
 6/7=2,8=2,9=2,10=2,28=1/1;
 7//1,2,3,16;
 1/18=20,19=15,26=3/3(2);
 2/9=110/2;
 99//99;
 2/9=110/2;
 3/5=7,6=1,11=2,25=1,30=1,71=1,74=-5,82=7/1,2,3;
 4/5=5,16=3,69=1/1;
 5/5=2,38=5/2;
 7//1,2,3,16;
 1/18=20,19=15,26=3/3(-5);
 2/9=110/2;
 6/7=2,8=2,9=2,10=2,19=2,28=1/1;
 99/9=1/99;
 ----------------------
 2-butyl, B3LYP/pcseg-2
 ----------------------
 Symbolic Z-matrix:
 Charge =  0 Multiplicity = 2
 C                    -1.93994  -0.17911   0.08364 
 C                    -0.58178   0.51214  -0.08699 
 H                    -2.76211   0.54211   0.04811 
 H                    -1.99365  -0.70765   1.04078 
 H                    -2.10704  -0.9148   -0.71069 
 C                     0.57715  -0.42849  -0.06802 
 H                    -0.59142   1.08605  -1.03327 
 H                    -0.44975   1.27454   0.69559 
 C                     1.97835   0.05912   0.07487 
 H                     0.41324  -1.44897  -0.40608 
 H                     2.66958  -0.74974   0.3321 
 H                     2.05964   0.83469   0.8477 
 H                     2.35915   0.51633  -0.85597 
 

 GradGradGradGradGradGradGradGradGradGradGradGradGradGradGradGradGradGrad
 Berny optimization.
 Initialization pass.
                           ----------------------------
                           !    Initial Parameters    !
                           ! (Angstroms and Degrees)  !
 --------------------------                            --------------------------
 ! Name  Definition              Value          Derivative Info.                !
 --------------------------------------------------------------------------------
 ! R1    R(1,2)                  1.5335         estimate D2E/DX2                !
 ! R2    R(1,3)                  1.0943         estimate D2E/DX2                !
 ! R3    R(1,4)                  1.0947         estimate D2E/DX2                !
 ! R4    R(1,5)                  1.0955         estimate D2E/DX2                !
 ! R5    R(2,6)                  1.4927         estimate D2E/DX2                !
 ! R6    R(2,7)                  1.1068         estimate D2E/DX2                !
 ! R7    R(2,8)                  1.1005         estimate D2E/DX2                !
 ! R8    R(6,9)                  1.4905         estimate D2E/DX2                !
 ! R9    R(6,10)                 1.0874         estimate D2E/DX2                !
 ! R10   R(9,11)                 1.0946         estimate D2E/DX2                !
 ! R11   R(9,12)                 1.0979         estimate D2E/DX2                !
 ! R12   R(9,13)                 1.1048         estimate D2E/DX2                !
 ! A1    A(2,1,3)              111.3917         estimate D2E/DX2                !
 ! A2    A(2,1,4)              111.0012         estimate D2E/DX2                !
 ! A3    A(2,1,5)              110.9247         estimate D2E/DX2                !
 ! A4    A(3,1,4)              108.0442         estimate D2E/DX2                !
 ! A5    A(3,1,5)              107.726          estimate D2E/DX2                !
 ! A6    A(4,1,5)              107.5925         estimate D2E/DX2                !
 ! A7    A(1,2,6)              113.713          estimate D2E/DX2                !
 ! A8    A(1,2,7)              108.7334         estimate D2E/DX2                !
 ! A9    A(1,2,8)              109.8417         estimate D2E/DX2                !
 ! A10   A(6,2,7)              110.1442         estimate D2E/DX2                !
 ! A11   A(6,2,8)              109.5336         estimate D2E/DX2                !
 ! A12   A(7,2,8)              104.4662         estimate D2E/DX2                !
 ! A13   A(2,6,9)              121.6644         estimate D2E/DX2                !
 ! A14   A(2,6,10)             118.0577         estimate D2E/DX2                !
 ! A15   A(9,6,10)             118.5879         estimate D2E/DX2                !
 ! A16   A(6,9,11)             111.989          estimate D2E/DX2                !
 ! A17   A(6,9,12)             111.604          estimate D2E/DX2                !
 ! A18   A(6,9,13)             112.2508         estimate D2E/DX2                !
 ! A19   A(11,9,12)            108.0486         estimate D2E/DX2                !
 ! A20   A(11,9,13)            106.6271         estimate D2E/DX2                !
 ! A21   A(12,9,13)            105.9755         estimate D2E/DX2                !
 ! D1    D(3,1,2,6)           -179.0922         estimate D2E/DX2                !
 ! D2    D(3,1,2,7)            -55.9894         estimate D2E/DX2                !
 ! D3    D(3,1,2,8)             57.7643         estimate D2E/DX2                !
 ! D4    D(4,1,2,6)             60.4623         estimate D2E/DX2                !
 ! D5    D(4,1,2,7)           -176.4348         estimate D2E/DX2                !
 ! D6    D(4,1,2,8)            -62.6812         estimate D2E/DX2                !
 ! D7    D(5,1,2,6)            -59.1014         estimate D2E/DX2                !
 ! D8    D(5,1,2,7)             64.0014         estimate D2E/DX2                !
 ! D9    D(5,1,2,8)            177.7551         estimate D2E/DX2                !
 ! D10   D(1,2,6,9)           -166.681          estimate D2E/DX2                !
 ! D11   D(1,2,6,10)            28.3468         estimate D2E/DX2                !
 ! D12   D(7,2,6,9)             70.9913         estimate D2E/DX2                !
 ! D13   D(7,2,6,10)           -93.9809         estimate D2E/DX2                !
 ! D14   D(8,2,6,9)            -43.3692         estimate D2E/DX2                !
 ! D15   D(8,2,6,10)           151.6586         estimate D2E/DX2                !
 ! D16   D(2,6,9,11)           164.9981         estimate D2E/DX2                !
 ! D17   D(2,6,9,12)            43.7138         estimate D2E/DX2                !
 ! D18   D(2,6,9,13)           -75.0929         estimate D2E/DX2                !
 ! D19   D(10,6,9,11)          -30.1066         estimate D2E/DX2                !
 ! D20   D(10,6,9,12)         -151.3909         estimate D2E/DX2                !
 ! D21   D(10,6,9,13)           89.8024         estimate D2E/DX2                !
 --------------------------------------------------------------------------------
 Trust Radius=3.00D-01 FncErr=1.00D-07 GrdErr=1.00D-06 EigMax=2.50D+02 EigMin=1.00D-04
 Number of steps in this run=     64 maximum allowed number of steps=    100.
 GradGradGradGradGradGradGradGradGradGradGradGradGradGradGradGradGradGrad

                          Input orientation:                          
 ---------------------------------------------------------------------
 Center     Atomic      Atomic             Coordinates (Angstroms)
 Number     Number       Type             X           Y           Z
 ---------------------------------------------------------------------
      1          6           0       -1.939935   -0.179109    0.083640
      2          6           0       -0.581779    0.512143   -0.086986
      3          1           0       -2.762112    0.542109    0.048110
      4          1           0       -1.993647   -0.707653    1.040779
      5          1           0       -2.107039   -0.914796   -0.710687
      6          6           0        0.577153   -0.428486   -0.068017
      7          1           0       -0.591423    1.086046   -1.033269
      8          1           0       -0.449746    1.274543    0.695586
      9          6           0        1.978353    0.059124    0.074868
     10          1           0        0.413243   -1.448970   -0.406076
     11          1           0        2.669583   -0.749743    0.332098
     12          1           0        2.059643    0.834693    0.847698
     13          1           0        2.359154    0.516329   -0.855965
 ---------------------------------------------------------------------
                    Distance matrix (angstroms):
                    1          2          3          4          5
     1  C    0.000000
     2  C    1.533470   0.000000
     3  H    1.094254   2.184720   0.000000
     4  H    1.094696   2.180167   1.771394   0.000000
     5  H    1.095497   2.179811   1.768464   1.767314   0.000000
     6  C    2.533954   1.492738   3.479401   2.813605   2.802572
     7  H    2.160229   1.106756   2.485385   3.079815   2.530715
     8  H    2.169849   1.100502   2.510522   2.536117   3.085033
     9  C    3.925533   2.604937   4.765081   4.159052   4.272709
    10  H    2.718421   2.222128   3.775389   2.904490   2.594215
    11  H    4.651345   3.512740   5.590424   4.716960   4.891908
    12  H    4.196213   2.820422   4.896352   4.341114   4.780221
    13  H    4.455183   3.039808   5.200517   4.903330   4.692132
                    6          7          8          9         10
     6  C    0.000000
     7  H    2.142683   0.000000
     8  H    2.130239   1.744862   0.000000
     9  C    1.490484   2.980987   2.785354   0.000000
    10  H    1.087446   2.798041   3.062014   2.226033   0.000000
    11  H    2.154428   3.983530   3.736318   1.094638   2.474851
    12  H    2.152192   3.260271   2.552183   1.097899   3.081834
    13  H    2.165425   3.010302   3.297290   1.104761   2.802030
                   11         12         13
    11  H    0.000000
    12  H    1.774347   0.000000
    13  H    1.763745   1.758843   0.000000
 Stoichiometry    C4H9(2)
 Framework group  C1[X(C4H9)]
 Deg. of freedom    33
 Full point group                 C1      NOp   1
 Largest Abelian subgroup         C1      NOp   1
 Largest concise Abelian subgroup C1      NOp   1
                         Standard orientation:                         
 ---------------------------------------------------------------------
 Center     Atomic      Atomic             Coordinates (Angstroms)
 Number     Number       Type             X           Y           Z
 ---------------------------------------------------------------------
      1          6           0       -1.935046    0.170651   -0.089135
      2          6           0       -0.572414   -0.507014    0.099371
      3          1           0       -2.752473   -0.554798   -0.035016
      4          1           0       -1.992020    0.673914   -1.059619
      5          1           0       -2.107157    0.925509    0.685902
      6          6           0        0.580315    0.440411    0.056153
      7          1           0       -0.578495   -1.056317    1.060172
      8          1           0       -0.435201   -1.288502   -0.663226
      9          6           0        1.984721   -0.041505   -0.074009
     10          1           0        0.409627    1.468192    0.367713
     11          1           0        2.670677    0.764971   -0.352026
     12          1           0        2.071277   -0.836240   -0.826530
     13          1           0        2.368313   -0.471984    0.868350
 ---------------------------------------------------------------------
 Rotational constants (GHZ):          26.4523753           3.6265782           3.4135439
 General basis read from cards:  (5D, 7F)
 There are   275 symmetry adapted cartesian basis functions of A   symmetry.
 There are   246 symmetry adapted basis functions of A   symmetry.
   246 basis functions,   366 primitive gaussians,   275 cartesian basis functions
    17 alpha electrons       16 beta electrons
       nuclear repulsion energy       121.8846103713 Hartrees.
 NAtoms=   13 NActive=   13 NUniq=   13 SFac= 1.00D+00 NAtFMM=   60 NAOKFM=F Big=F
 Integral buffers will be    131072 words long.
 Raffenetti 2 integral format.
 Two-electron integral symmetry is turned on.
 One-electron integrals computed using PRISM.
 NBasis=   246 RedAO= T EigKep=  2.99D-04  NBF=   246
 NBsUse=   246 1.00D-06 EigRej= -1.00D+00 NBFU=   246
 ExpMin= 7.42D-02 ExpMax= 7.32D+03 ExpMxC= 2.50D+02 IAcc=3 IRadAn=         5 AccDes= 0.00D+00
 Harris functional with IExCor=  402 and IRadAn=       5 diagonalized for initial guess.
 HarFok:  IExCor=  402 AccDes= 0.00D+00 IRadAn=         5 IDoV= 1 UseB2=F ITyADJ=14
 ICtDFT=  3500011 ScaDFX=  1.000000  1.000000  1.000000  1.000000
 FoFCou: FMM=F IPFlag=           0 FMFlag=      100000 FMFlg1=           0
         NFxFlg=           0 DoJE=T BraDBF=F KetDBF=T FulRan=T
         wScrn=  0.000000 ICntrl=       500 IOpCl=  0 I1Cent=   200000004 NGrid=           0
         NMat0=    1 NMatS0=      1 NMatT0=    0 NMatD0=    1 NMtDS0=    0 NMtDT0=    0
 Petite list used in FoFCou.
 Initial guess <Sx>= 0.0000 <Sy>= 0.0000 <Sz>= 0.5000 <S**2>= 0.7500 S= 0.5000
 Requested convergence on RMS density matrix=1.00D-08 within 128 cycles.
 Requested convergence on MAX density matrix=1.00D-06.
 Requested convergence on             energy=1.00D-06.
 No special actions if energy rises.
 Integral accuracy reduced to 1.0D-05 until final iterations.
 Initial convergence to 1.0D-05 achieved.  Increase integral accuracy.
 SCF Done:  E(UB3LYP) =  -157.858647128     A.U. after   13 cycles
            NFock= 13  Conv=0.49D-08     -V/T= 2.0051
 <Sx>= 0.0000 <Sy>= 0.0000 <Sz>= 0.5000 <S**2>= 0.7541 S= 0.5021
 <L.S>=  0.00000000000    
 Annihilation of the first spin contaminant:
 S**2 before annihilation     0.7541,   after     0.7500

 **********************************************************************

            Population analysis using the SCF Density.

 **********************************************************************

 Orbital symmetries:
 Alpha Orbitals:
       Occupied  (A) (A) (A) (A) (A) (A) (A) (A) (A) (A) (A) (A)
                 (A) (A) (A) (A) (A)
       Virtual   (A) (A) (A) (A) (A) (A) (A) (A) (A) (A) (A) (A)
                 (A) (A) (A) (A) (A) (A) (A) (A) (A) (A) (A) (A)
                 (A) (A) (A) (A) (A) (A) (A) (A) (A) (A) (A) (A)
                 (A) (A) (A) (A) (A) (A) (A) (A) (A) (A) (A) (A)
                 (A) (A) (A) (A) (A) (A) (A) (A) (A) (A) (A) (A)
                 (A) (A) (A) (A) (A) (A) (A) (A) (A) (A) (A) (A)
                 (A) (A) (A) (A) (A) (A) (A) (A) (A) (A) (A) (A)
                 (A) (A) (A) (A) (A) (A) (A) (A) (A) (A) (A) (A)
                 (A) (A) (A) (A) (A) (A) (A) (A) (A) (A) (A) (A)
                 (A) (A) (A) (A) (A) (A) (A) (A) (A) (A) (A) (A)
                 (A) (A) (A) (A) (A) (A) (A) (A) (A) (A) (A) (A)
                 (A) (A) (A) (A) (A) (A) (A) (A) (A) (A) (A) (A)
                 (A) (A) (A) (A) (A) (A) (A) (A) (A) (A) (A) (A)
                 (A) (A) (A) (A) (A) (A) (A) (A) (A) (A) (A) (A)
                 (A) (A) (A) (A) (A) (A) (A) (A) (A) (A) (A) (A)
                 (A) (A) (A) (A) (A) (A) (A) (A) (A) (A) (A) (A)
                 (A) (A) (A) (A) (A) (A) (A) (A) (A) (A) (A) (A)
                 (A) (A) (A) (A) (A) (A) (A) (A) (A) (A) (A) (A)
                 (A) (A) (A) (A) (A) (A) (A) (A) (A) (A) (A) (A)
                 (A)
 Beta  Orbitals:
       Occupied  (A) (A) (A) (A) (A) (A) (A) (A) (A) (A) (A) (A)
                 (A) (A) (A) (A)
       Virtual   (A) (A) (A) (A) (A) (A) (A) (A) (A) (A) (A) (A)
                 (A) (A) (A) (A) (A) (A) (A) (A) (A) (A) (A) (A)
                 (A) (A) (A) (A) (A) (A) (A) (A) (A) (A) (A) (A)
                 (A) (A) (A) (A) (A) (A) (A) (A) (A) (A) (A) (A)
                 (A) (A) (A) (A) (A) (A) (A) (A) (A) (A) (A) (A)
                 (A) (A) (A) (A) (A) (A) (A) (A) (A) (A) (A) (A)
                 (A) (A) (A) (A) (A) (A) (A) (A) (A) (A) (A) (A)
                 (A) (A) (A) (A) (A) (A) (A) (A) (A) (A) (A) (A)
                 (A) (A) (A) (A) (A) (A) (A) (A) (A) (A) (A) (A)
                 (A) (A) (A) (A) (A) (A) (A) (A) (A) (A) (A) (A)
                 (A) (A) (A) (A) (A) (A) (A) (A) (A) (A) (A) (A)
                 (A) (A) (A) (A) (A) (A) (A) (A) (A) (A) (A) (A)
                 (A) (A) (A) (A) (A) (A) (A) (A) (A) (A) (A) (A)
                 (A) (A) (A) (A) (A) (A) (A) (A) (A) (A) (A) (A)
                 (A) (A) (A) (A) (A) (A) (A) (A) (A) (A) (A) (A)
                 (A) (A) (A) (A) (A) (A) (A) (A) (A) (A) (A) (A)
                 (A) (A) (A) (A) (A) (A) (A) (A) (A) (A) (A) (A)
                 (A) (A) (A) (A) (A) (A) (A) (A) (A) (A) (A) (A)
                 (A) (A) (A) (A) (A) (A) (A) (A) (A) (A) (A) (A)
                 (A) (A)
 The electronic state is 2-A.
 Alpha  occ. eigenvalues --  -10.17465 -10.17090 -10.16513 -10.16028  -0.79652
 Alpha  occ. eigenvalues --   -0.72929  -0.63573  -0.56755  -0.45722  -0.43560
 Alpha  occ. eigenvalues --   -0.43153  -0.40843  -0.37587  -0.35340  -0.34446
 Alpha  occ. eigenvalues --   -0.34115  -0.18804
 Alpha virt. eigenvalues --    0.01792   0.03171   0.04291   0.05738   0.07638
 Alpha virt. eigenvalues --    0.08032   0.09512   0.09959   0.11182   0.13373
 Alpha virt. eigenvalues --    0.14251   0.16731   0.18103   0.19279   0.20769
 Alpha virt. eigenvalues --    0.22305   0.24054   0.25941   0.28069   0.29684
 Alpha virt. eigenvalues --    0.31070   0.32415   0.32971   0.33755   0.34128
 Alpha virt. eigenvalues --    0.35563   0.36032   0.36541   0.37508   0.37808
 Alpha virt. eigenvalues --    0.38518   0.43307   0.44438   0.46311   0.49869
 Alpha virt. eigenvalues --    0.51807   0.58431   0.64642   0.68650   0.76793
 Alpha virt. eigenvalues --    0.79585   0.81312   0.84487   0.87699   0.90962
 Alpha virt. eigenvalues --    0.92317   0.95129   0.96136   0.97344   0.98365
 Alpha virt. eigenvalues --    0.99169   1.00334   1.02250   1.03608   1.05564
 Alpha virt. eigenvalues --    1.07088   1.07854   1.08734   1.09750   1.11212
 Alpha virt. eigenvalues --    1.12667   1.15752   1.16264   1.21153   1.22358
 Alpha virt. eigenvalues --    1.24957   1.27519   1.28317   1.29450   1.33477
 Alpha virt. eigenvalues --    1.34895   1.40802   1.41842   1.44057   1.49688
 Alpha virt. eigenvalues --    1.50687   1.56977   1.60515   1.62067   1.63972
 Alpha virt. eigenvalues --    1.66807   1.68181   1.71260   1.73969   1.76629
 Alpha virt. eigenvalues --    1.79454   1.81878   1.83748   1.85767   1.87403
 Alpha virt. eigenvalues --    1.90462   1.94998   1.95352   1.96643   2.03814
 Alpha virt. eigenvalues --    2.12866   2.18287   2.27049   2.28110   2.35888
 Alpha virt. eigenvalues --    2.40116   2.46314   2.54578   2.58348   2.61917
 Alpha virt. eigenvalues --    2.71800   2.82352   3.06116   3.07541   3.08287
 Alpha virt. eigenvalues --    3.13881   3.16756   3.18871   3.23851   3.25270
 Alpha virt. eigenvalues --    3.28223   3.29302   3.30572   3.34901   3.35833
 Alpha virt. eigenvalues --    3.38119   3.42814   3.45590   3.47520   3.54826
 Alpha virt. eigenvalues --    3.58692   3.63367   3.67982   3.68715   3.73764
 Alpha virt. eigenvalues --    3.77645   3.79945   3.81137   3.82027   3.84865
 Alpha virt. eigenvalues --    3.85434   3.85937   3.87429   3.90557   3.94857
 Alpha virt. eigenvalues --    3.95910   3.98516   4.00418   4.07444   4.13493
 Alpha virt. eigenvalues --    4.15831   4.17351   4.19790   4.22788   4.25816
 Alpha virt. eigenvalues --    4.26849   4.27643   4.29429   4.30720   4.34426
 Alpha virt. eigenvalues --    4.36752   4.37932   4.41409   4.42008   4.47009
 Alpha virt. eigenvalues --    4.47237   4.49743   4.51252   4.53677   4.55504
 Alpha virt. eigenvalues --    4.56973   4.57833   4.60187   4.61219   4.63158
 Alpha virt. eigenvalues --    4.64303   4.64531   4.66574   4.68046   4.69612
 Alpha virt. eigenvalues --    4.71442   4.73717   4.77998   4.82753   4.82904
 Alpha virt. eigenvalues --    4.85556   4.87011   4.88205   4.91456   4.96884
 Alpha virt. eigenvalues --    4.98744   5.02967   5.06275   5.09654   5.11126
 Alpha virt. eigenvalues --    5.17241   5.20193   5.23422   5.25645   5.30844
 Alpha virt. eigenvalues --    5.34455   5.39029   5.41795   5.43639   5.48920
 Alpha virt. eigenvalues --    5.49569   5.52432   5.55887   5.61932   5.63931
 Alpha virt. eigenvalues --    5.66741   5.70809   5.72719   5.74695   5.76950
 Alpha virt. eigenvalues --    5.81244   5.83190   5.84514   5.86116   5.88499
 Alpha virt. eigenvalues --    5.90579   5.92781   5.93323   5.98085   6.01246
 Alpha virt. eigenvalues --    6.06541   6.08531   6.12395   6.16022   6.17186
 Alpha virt. eigenvalues --    6.20077   6.24592   6.26552   7.05040
  Beta  occ. eigenvalues --  -10.17176 -10.16599 -10.16029 -10.16007  -0.78439
  Beta  occ. eigenvalues --   -0.72401  -0.63058  -0.55050  -0.44876  -0.43124
  Beta  occ. eigenvalues --   -0.42653  -0.39855  -0.37327  -0.34907  -0.34093
  Beta  occ. eigenvalues --   -0.33643
  Beta virt. eigenvalues --   -0.04841   0.01890   0.03200   0.04406   0.05818
  Beta virt. eigenvalues --    0.07825   0.08051   0.09678   0.10166   0.11389
  Beta virt. eigenvalues --    0.13488   0.14469   0.16894   0.18278   0.19337
  Beta virt. eigenvalues --    0.21119   0.22804   0.25834   0.26209   0.28660
  Beta virt. eigenvalues --    0.31079   0.31729   0.32979   0.33221   0.34364
  Beta virt. eigenvalues --    0.34509   0.35585   0.36248   0.36727   0.37689
  Beta virt. eigenvalues --    0.38031   0.38877   0.44080   0.45089   0.47003
  Beta virt. eigenvalues --    0.50115   0.52066   0.58673   0.65591   0.69229
  Beta virt. eigenvalues --    0.77018   0.79755   0.81540   0.84707   0.89108
  Beta virt. eigenvalues --    0.91166   0.92518   0.95674   0.96368   0.97676
  Beta virt. eigenvalues --    0.98687   0.99511   1.00730   1.02599   1.04423
  Beta virt. eigenvalues --    1.06118   1.07299   1.08333   1.09050   1.10022
  Beta virt. eigenvalues --    1.11315   1.12920   1.16667   1.17641   1.21910
  Beta virt. eigenvalues --    1.23018   1.25504   1.27713   1.29239   1.31694
  Beta virt. eigenvalues --    1.34447   1.35960   1.42334   1.43470   1.44644
  Beta virt. eigenvalues --    1.50324   1.51503   1.57951   1.61191   1.62805
  Beta virt. eigenvalues --    1.64196   1.67446   1.68414   1.71539   1.74430
  Beta virt. eigenvalues --    1.76900   1.79787   1.82621   1.84280   1.86261
  Beta virt. eigenvalues --    1.88599   1.91624   1.95196   1.95706   1.97315
  Beta virt. eigenvalues --    2.04774   2.13544   2.18962   2.27072   2.28509
  Beta virt. eigenvalues --    2.36817   2.40596   2.46645   2.54951   2.58582
  Beta virt. eigenvalues --    2.62370   2.72433   2.83002   3.06473   3.08305
  Beta virt. eigenvalues --    3.09164   3.14833   3.17645   3.19508   3.24308
  Beta virt. eigenvalues --    3.26002   3.28379   3.29360   3.32215   3.35207
  Beta virt. eigenvalues --    3.36229   3.38721   3.43350   3.46237   3.48273
  Beta virt. eigenvalues --    3.55566   3.59040   3.63805   3.69586   3.69661
  Beta virt. eigenvalues --    3.74996   3.78712   3.80343   3.82326   3.83031
  Beta virt. eigenvalues --    3.85329   3.85996   3.86322   3.88097   3.92310
  Beta virt. eigenvalues --    3.95410   3.96734   3.99307   4.01108   4.07889
  Beta virt. eigenvalues --    4.14681   4.16694   4.19176   4.21209   4.23478
  Beta virt. eigenvalues --    4.26644   4.27768   4.28027   4.30004   4.31866
  Beta virt. eigenvalues --    4.34873   4.37531   4.39028   4.42508   4.43276
  Beta virt. eigenvalues --    4.47451   4.47693   4.50816   4.52033   4.54043
  Beta virt. eigenvalues --    4.55833   4.57435   4.58367   4.60606   4.61661
  Beta virt. eigenvalues --    4.63641   4.64610   4.64908   4.67199   4.68564
  Beta virt. eigenvalues --    4.70347   4.71639   4.74530   4.78412   4.83293
  Beta virt. eigenvalues --    4.83714   4.86706   4.87616   4.89120   4.92046
  Beta virt. eigenvalues --    4.97739   4.99287   5.03276   5.06492   5.10022
  Beta virt. eigenvalues --    5.11586   5.17724   5.21118   5.23811   5.26019
  Beta virt. eigenvalues --    5.31697   5.35019   5.39527   5.42655   5.44011
  Beta virt. eigenvalues --    5.49246   5.50537   5.52888   5.56092   5.62390
  Beta virt. eigenvalues --    5.64437   5.67041   5.71032   5.72985   5.75112
  Beta virt. eigenvalues --    5.77401   5.81467   5.83610   5.84831   5.86417
  Beta virt. eigenvalues --    5.88793   5.90760   5.92877   5.93619   5.98377
  Beta virt. eigenvalues --    6.01651   6.06863   6.08932   6.12684   6.16395
  Beta virt. eigenvalues --    6.17345   6.20328   6.24777   6.26810   7.05513
          Condensed to atoms (all electrons):
               1          2          3          4          5          6
     1  C    4.627413   0.311887   0.422441   0.427666   0.424972  -0.058594
     2  C    0.311887   4.686974  -0.038279  -0.040895  -0.031902   0.321112
     3  H    0.422441  -0.038279   0.633742  -0.024316  -0.026285   0.013707
     4  H    0.427666  -0.040895  -0.024316   0.638961  -0.031706   0.000114
     5  H    0.424972  -0.031902  -0.026285  -0.031706   0.650635  -0.011409
     6  C   -0.058594   0.321112   0.013707   0.000114  -0.011409   5.391113
     7  H   -0.044180   0.422098  -0.003584   0.012482  -0.011603  -0.060923
     8  H   -0.031549   0.443829  -0.006433  -0.010549   0.011543  -0.067537
     9  C    0.010162  -0.046963  -0.000791  -0.000870   0.000089   0.308893
    10  H   -0.007083  -0.042182   0.000389  -0.000650   0.003642   0.424329
    11  H   -0.000592   0.010928   0.000039  -0.000117   0.000024  -0.039787
    12  H    0.000519  -0.003315  -0.000079  -0.000181   0.000010  -0.059666
    13  H   -0.000936  -0.004861   0.000095   0.000175  -0.000186  -0.056962
               7          8          9         10         11         12
     1  C   -0.044180  -0.031549   0.010162  -0.007083  -0.000592   0.000519
     2  C    0.422098   0.443829  -0.046963  -0.042182   0.010928  -0.003315
     3  H   -0.003584  -0.006433  -0.000791   0.000389   0.000039  -0.000079
     4  H    0.012482  -0.010549  -0.000870  -0.000650  -0.000117  -0.000181
     5  H   -0.011603   0.011543   0.000089   0.003642   0.000024   0.000010
     6  C   -0.060923  -0.067537   0.308893   0.424329  -0.039787  -0.059666
     7  H    0.717741  -0.052087  -0.002712  -0.000342  -0.000950  -0.003398
     8  H   -0.052087   0.689009  -0.002557   0.007196   0.000542   0.007227
     9  C   -0.002712  -0.002557   4.571732  -0.036788   0.425558   0.433518
    10  H   -0.000342   0.007196  -0.036788   0.610403  -0.008386   0.007532
    11  H   -0.000950   0.000542   0.425558  -0.008386   0.630578  -0.022081
    12  H   -0.003398   0.007227   0.433518   0.007532  -0.022081   0.659283
    13  H    0.009390  -0.003710   0.413190  -0.000530  -0.031533  -0.044641
              13
     1  C   -0.000936
     2  C   -0.004861
     3  H    0.000095
     4  H    0.000175
     5  H   -0.000186
     6  C   -0.056962
     7  H    0.009390
     8  H   -0.003710
     9  C    0.413190
    10  H   -0.000530
    11  H   -0.031533
    12  H   -0.044641
    13  H    0.691186
          Atomic-Atomic Spin Densities.
               1          2          3          4          5          6
     1  C    0.018120   0.012734  -0.002812  -0.004401   0.000739  -0.020686
     2  C    0.012734  -0.056419   0.000404  -0.003288   0.001629  -0.048478
     3  H   -0.002812   0.000404   0.000271   0.001612  -0.000903   0.000651
     4  H   -0.004401  -0.003288   0.001612   0.001343  -0.001689   0.010117
     5  H    0.000739   0.001629  -0.000903  -0.001689   0.002118  -0.000375
     6  C   -0.020686  -0.048478   0.000651   0.010117  -0.000375   1.228365
     7  H   -0.009689   0.003239   0.003185   0.003097  -0.004572  -0.038868
     8  H    0.011717   0.008635  -0.001911  -0.003239   0.001546  -0.025310
     9  C    0.001059   0.003571  -0.000045  -0.000474   0.000151  -0.046092
    10  H   -0.000002  -0.001260  -0.000278  -0.000208   0.000794   0.007096
    11  H    0.000152   0.000765  -0.000011  -0.000094   0.000054  -0.009412
    12  H    0.000879   0.003494  -0.000087  -0.000345   0.000146  -0.023595
    13  H   -0.000788  -0.001216   0.000094   0.000292  -0.000294  -0.038264
               7          8          9         10         11         12
     1  C   -0.009689   0.011717   0.001059  -0.000002   0.000152   0.000879
     2  C    0.003239   0.008635   0.003571  -0.001260   0.000765   0.003494
     3  H    0.003185  -0.001911  -0.000045  -0.000278  -0.000011  -0.000087
     4  H    0.003097  -0.003239  -0.000474  -0.000208  -0.000094  -0.000345
     5  H   -0.004572   0.001546   0.000151   0.000794   0.000054   0.000146
     6  C   -0.038868  -0.025310  -0.046092   0.007096  -0.009412  -0.023595
     7  H    0.132637  -0.028721   0.000081  -0.002655  -0.000923  -0.005111
     8  H   -0.028721   0.051855   0.003052   0.000725   0.000797   0.006618
     9  C    0.000081   0.003052  -0.054598   0.003020   0.007353   0.011401
    10  H   -0.002655   0.000725   0.003020  -0.045783   0.001704   0.000677
    11  H   -0.000923   0.000797   0.007353   0.001704   0.013109   0.007102
    12  H   -0.005111   0.006618   0.011401   0.000677   0.007102   0.044649
    13  H    0.012059  -0.005320   0.004345  -0.002684  -0.012549  -0.025731
              13
     1  C   -0.000788
     2  C   -0.001216
     3  H    0.000094
     4  H    0.000292
     5  H   -0.000294
     6  C   -0.038264
     7  H    0.012059
     8  H   -0.005320
     9  C    0.004345
    10  H   -0.002684
    11  H   -0.012549
    12  H   -0.025731
    13  H    0.135520
 Mulliken charges and spin densities:
               1          2
     1  C   -0.082125   0.007022
     2  C    0.011568  -0.076190
     3  H    0.029355   0.000169
     4  H    0.029887   0.002723
     5  H    0.022177  -0.000655
     6  C   -0.104389   0.995150
     7  H    0.018068   0.063760
     8  H    0.015076   0.020445
     9  C   -0.072461  -0.067177
    10  H    0.042470  -0.038855
    11  H    0.035777   0.008047
    12  H    0.025273   0.020098
    13  H    0.029323   0.065464
 Sum of Mulliken charges =  -0.00000   1.00000
 Mulliken charges and spin densities with hydrogens summed into heavy atoms:
               1          2
     1  C   -0.000706   0.009259
     2  C    0.044713   0.008015
     6  C   -0.061918   0.956295
     9  C    0.017912   0.026431
 Electronic spatial extent (au):  <R**2>=            418.8785
 Charge=             -0.0000 electrons
 Dipole moment (field-independent basis, Debye):
    X=              0.0704    Y=             -0.1917    Z=              0.1728  Tot=              0.2675
 Quadrupole moment (field-independent basis, Debye-Ang):
   XX=            -28.0164   YY=            -27.8297   ZZ=            -28.4044
   XY=              0.2534   XZ=             -0.0551   YZ=              0.4330
 Traceless Quadrupole moment (field-independent basis, Debye-Ang):
   XX=              0.0671   YY=              0.2538   ZZ=             -0.3209
   XY=              0.2534   XZ=             -0.0551   YZ=              0.4330
 Octapole moment (field-independent basis, Debye-Ang**2):
  XXX=              1.1296  YYY=              0.6296  ZZZ=              0.2389  XYY=              0.1631
  XXY=             -0.1321  XXZ=              0.0028  XZZ=             -0.3632  YZZ=             -0.9189
  YYZ=              0.2355  XYZ=             -0.1095
 Hexadecapole moment (field-independent basis, Debye-Ang**3):
 XXXX=           -464.0955 YYYY=            -86.4143 ZZZZ=            -56.5637 XXXY=              6.7236
 XXXZ=             -1.1129 YYYX=              1.6725 YYYZ=              2.3385 ZZZX=              0.8656
 ZZZY=              0.0080 XXYY=            -89.0936 XXZZ=            -86.0594 YYZZ=            -23.2172
 XXYZ=             -0.4605 YYXZ=             -0.9660 ZZXY=             -1.9084
 N-N= 1.218846103713D+02 E-N=-6.087563961776D+02  KE= 1.570546129929D+02
                          Isotropic Fermi Contact Couplings
        Atom                 a.u.       MegaHertz       Gauss      10(-4) cm-1
     1  C(13)              0.01079      12.13397       4.32970       4.04746
     2  C(13)             -0.03026     -34.02076     -12.13945     -11.34810
     3  H(1)              -0.00029      -1.31392      -0.46884      -0.43828
     4  H(1)              -0.00042      -1.85904      -0.66335      -0.62011
     5  H(1)              -0.00036      -1.62145      -0.57857      -0.54086
     6  C(13)              0.14150     159.06974      56.76004      53.05995
     7  H(1)               0.02862     127.94932      45.65550      42.67930
     8  H(1)               0.01118      49.96914      17.83023      16.66791
     9  C(13)             -0.03187     -35.83318     -12.78617     -11.95266
    10  H(1)              -0.01294     -57.85830     -20.64528     -19.29945
    11  H(1)               0.00495      22.13834       7.89951       7.38455
    12  H(1)               0.01057      47.26334      16.86474      15.76535
    13  H(1)               0.03116     139.26515      49.69327      46.45385
 --------------------------------------------------------
       Center         ----  Spin Dipole Couplings  ----
                      3XX-RR        3YY-RR        3ZZ-RR
 --------------------------------------------------------
     1   Atom        0.018055     -0.008851     -0.009204
     2   Atom        0.003929     -0.001527     -0.002402
     3   Atom        0.005700     -0.002698     -0.003002
     4   Atom        0.009747     -0.005555     -0.004192
     5   Atom        0.008504     -0.004514     -0.003990
     6   Atom       -0.563619     -0.507314      1.070934
     7   Atom        0.000837      0.002918     -0.003756
     8   Atom       -0.002233      0.009863     -0.007631
     9   Atom        0.012465     -0.009304     -0.003161
    10   Atom       -0.067409      0.057373      0.010036
    11   Atom        0.016153     -0.008848     -0.007305
    12   Atom        0.004458      0.001698     -0.006156
    13   Atom        0.008701     -0.004662     -0.004038
 --------------------------------------------------------
                        XY            XZ            YZ
 --------------------------------------------------------
     1   Atom       -0.002252     -0.004433      0.001125
     2   Atom        0.013972     -0.003201     -0.005379
     3   Atom        0.002203      0.000237     -0.000211
     4   Atom       -0.001086      0.005095     -0.001440
     5   Atom       -0.002946     -0.003409      0.000675
     6   Atom       -0.036412      0.173692     -0.339892
     7   Atom        0.009731     -0.003872     -0.007638
     8   Atom        0.010032      0.003883      0.005496
     9   Atom       -0.011410      0.001989     -0.003736
    10   Atom       -0.022765      0.001831      0.020094
    11   Atom        0.003086     -0.003061      0.000101
    12   Atom       -0.010794     -0.006436      0.004791
    13   Atom       -0.008362      0.005755     -0.003912
 --------------------------------------------------------


 ---------------------------------------------------------------------------------
              Anisotropic Spin Dipole Couplings in Principal Axis System
 ---------------------------------------------------------------------------------

       Atom             a.u.   MegaHertz   Gauss  10(-4) cm-1        Axes

              Baa    -0.0103    -1.389    -0.496    -0.463  0.0942 -0.5033  0.8590
     1 C(13)  Bbb    -0.0086    -1.156    -0.413    -0.386  0.1535  0.8598  0.4870
              Bcc     0.0190     2.545     0.908     0.849  0.9836 -0.0860 -0.1582
 
              Baa    -0.0135    -1.810    -0.646    -0.604 -0.5882  0.7812  0.2092
     2 C(13)  Bbb    -0.0037    -0.501    -0.179    -0.167  0.3567  0.0184  0.9340
              Bcc     0.0172     2.311     0.824     0.771  0.7258  0.6240 -0.2895
 
              Baa    -0.0034    -1.819    -0.649    -0.607 -0.2107  0.8130  0.5428
     3 H(1)   Bbb    -0.0028    -1.514    -0.540    -0.505  0.1137 -0.5311  0.8396
              Bcc     0.0062     3.333     1.189     1.112  0.9709  0.2387  0.0194
 
              Baa    -0.0068    -3.629    -1.295    -1.210 -0.1764  0.6747  0.7167
     4 H(1)   Bbb    -0.0047    -2.528    -0.902    -0.843  0.2740  0.7330 -0.6226
              Bcc     0.0115     6.157     2.197     2.054  0.9454 -0.0865  0.3141
 
              Baa    -0.0052    -2.753    -0.982    -0.918  0.2495  0.9521  0.1771
     5 H(1)   Bbb    -0.0048    -2.584    -0.922    -0.862  0.1933 -0.2282  0.9542
              Bcc     0.0100     5.337     1.904     1.780  0.9489 -0.2038 -0.2410
 
              Baa    -0.5820   -78.095   -27.866   -26.050  0.9868  0.1439 -0.0741
     6 C(13)  Bbb    -0.5773   -77.472   -27.644   -25.842 -0.1253  0.9690  0.2130
              Bcc     1.1593   155.567    55.510    51.892  0.1025 -0.2009  0.9742
 
              Baa    -0.0097    -5.180    -1.848    -1.728 -0.4040  0.6809  0.6109
     7 H(1)   Bbb    -0.0056    -2.980    -1.063    -0.994  0.7049 -0.1939  0.6823
              Bcc     0.0153     8.160     2.912     2.722  0.5830  0.7063 -0.4017
 
              Baa    -0.0097    -5.159    -1.841    -1.721 -0.4208 -0.0389  0.9063
     8 H(1)   Bbb    -0.0077    -4.086    -1.458    -1.363  0.7691 -0.5451  0.3337
              Bcc     0.0173     9.245     3.299     3.084  0.4810  0.8375  0.2593
 
              Baa    -0.0148    -1.987    -0.709    -0.663  0.3615  0.9040  0.2282
     9 C(13)  Bbb    -0.0031    -0.411    -0.147    -0.137 -0.2329 -0.1495  0.9610
              Bcc     0.0179     2.398     0.856     0.800  0.9028 -0.4006  0.1565
 
              Baa    -0.0718   -38.303   -13.667   -12.776  0.9808  0.1833 -0.0670
    10 H(1)   Bbb     0.0038     2.041     0.728     0.681  0.1212 -0.3032  0.9452
              Bcc     0.0680    36.262    12.939    12.096 -0.1529  0.9351  0.3196
 
              Baa    -0.0094    -4.991    -1.781    -1.665 -0.1473  0.9523 -0.2672
    11 H(1)   Bbb    -0.0076    -4.030    -1.438    -1.344  0.0867  0.2815  0.9556
              Bcc     0.0169     9.021     3.219     3.009  0.9853  0.1176 -0.1241
 
              Baa    -0.0092    -4.919    -1.755    -1.641  0.4896  0.1042  0.8657
    12 H(1)   Bbb    -0.0075    -4.020    -1.434    -1.341  0.4999  0.7799 -0.3766
              Bcc     0.0168     8.939     3.190     2.982  0.7144 -0.6171 -0.3298
 
              Baa    -0.0091    -4.833    -1.724    -1.612  0.3088  0.8888  0.3387
    13 H(1)   Bbb    -0.0061    -3.272    -1.168    -1.092 -0.4427 -0.1809  0.8783
              Bcc     0.0152     8.105     2.892     2.704  0.8419 -0.4211  0.3376
 

 ---------------------------------------------------------------------------------

 Calling FoFJK, ICntrl=      2127 FMM=F ISym2X=0 I1Cent= 0 IOpClX= 1 NMat=1 NMatS=1 NMatT=0.
 ***** Axes restored to original set *****
 -------------------------------------------------------------------
 Center     Atomic                   Forces (Hartrees/Bohr)
 Number     Number              X              Y              Z
 -------------------------------------------------------------------
      1        6          -0.000763688   -0.000515949   -0.000079335
      2        6           0.000075443    0.000472284    0.000524357
      3        1           0.001899237   -0.001549721    0.000077583
      4        1           0.000128692    0.001356895   -0.002131322
      5        1           0.000404742    0.001783674    0.001789610
      6        6           0.000378946    0.000615952   -0.001347898
      7        1           0.000325112   -0.001516990    0.001842224
      8        1          -0.000179969   -0.001944615   -0.001645463
      9        6           0.000646171    0.000267607    0.000536036
     10        1           0.000342696    0.002083078    0.001019759
     11        1          -0.001769014    0.001812008   -0.000672749
     12        1          -0.000348330   -0.001846104   -0.001696137
     13        1          -0.001140038   -0.001018119    0.001783335
 -------------------------------------------------------------------
 Cartesian Forces:  Max     0.002131322 RMS     0.001240820

 GradGradGradGradGradGradGradGradGradGradGradGradGradGradGradGradGradGrad
 Berny optimization.
 FormGI is forming the generalized inverse of G from B-inverse, IUseBI=4.
 Internal  Forces:  Max     0.002716264 RMS     0.001182746
 Search for a local minimum.
 Step number   1 out of a maximum of   64
 All quantities printed in internal units (Hartrees-Bohrs-Radians)
 Mixed Optimization -- RFO/linear search
 Second derivative matrix not updated -- first step.
 ITU=  0
     Eigenvalues ---    0.00323   0.00862   0.00892   0.00974   0.03944
     Eigenvalues ---    0.05394   0.05441   0.05509   0.07080   0.07165
     Eigenvalues ---    0.09659   0.13035   0.15537   0.16000   0.16000
     Eigenvalues ---    0.16000   0.16000   0.16000   0.16000   0.21880
     Eigenvalues ---    0.22079   0.29105   0.32946   0.33151   0.33161
     Eigenvalues ---    0.33397   0.33627   0.33916   0.34185   0.34276
     Eigenvalues ---    0.34282   0.34326   0.35110
 RFO step:  Lambda=-2.37276275D-04 EMin= 3.23203425D-03
 Linear search not attempted -- first point.
 Iteration  1 RMS(Cart)=  0.00710259 RMS(Int)=  0.00001712
 Iteration  2 RMS(Cart)=  0.00002168 RMS(Int)=  0.00000277
 Iteration  3 RMS(Cart)=  0.00000000 RMS(Int)=  0.00000277
 Variable       Old X    -DE/DX   Delta X   Delta X   Delta X     New X
                                 (Linear)    (Quad)   (Total)
    R1        2.89784  -0.00200   0.00000  -0.00687  -0.00687   2.89097
    R2        2.06784  -0.00245   0.00000  -0.00714  -0.00714   2.06071
    R3        2.06868  -0.00252   0.00000  -0.00736  -0.00736   2.06131
    R4        2.07019  -0.00256   0.00000  -0.00748  -0.00748   2.06271
    R5        2.82087  -0.00268   0.00000  -0.00807  -0.00807   2.81279
    R6        2.09147  -0.00236   0.00000  -0.00717  -0.00717   2.08429
    R7        2.07965  -0.00254   0.00000  -0.00754  -0.00754   2.07210
    R8        2.81661  -0.00272   0.00000  -0.00813  -0.00813   2.80848
    R9        2.05497  -0.00232   0.00000  -0.00661  -0.00661   2.04836
   R10        2.06857  -0.00261   0.00000  -0.00762  -0.00762   2.06095
   R11        2.07473  -0.00252   0.00000  -0.00744  -0.00744   2.06729
   R12        2.08769  -0.00232   0.00000  -0.00698  -0.00698   2.08071
    A1        1.94415  -0.00013   0.00000  -0.00122  -0.00122   1.94293
    A2        1.93734  -0.00005   0.00000  -0.00017  -0.00018   1.93716
    A3        1.93600  -0.00002   0.00000   0.00016   0.00016   1.93616
    A4        1.88573   0.00004   0.00000  -0.00031  -0.00031   1.88542
    A5        1.88017   0.00005   0.00000   0.00012   0.00012   1.88029
    A6        1.87784   0.00012   0.00000   0.00151   0.00151   1.87935
    A7        1.98467   0.00082   0.00000   0.00345   0.00345   1.98811
    A8        1.89776  -0.00008   0.00000  -0.00019  -0.00019   1.89757
    A9        1.91710  -0.00016   0.00000   0.00074   0.00074   1.91784
   A10        1.92238  -0.00056   0.00000  -0.00498  -0.00498   1.91740
   A11        1.91172  -0.00032   0.00000  -0.00130  -0.00130   1.91042
   A12        1.82328   0.00025   0.00000   0.00217   0.00216   1.82544
   A13        2.12344  -0.00035   0.00000  -0.00113  -0.00114   2.12231
   A14        2.06050   0.00021   0.00000   0.00170   0.00169   2.06219
   A15        2.06975   0.00015   0.00000   0.00134   0.00133   2.07108
   A16        1.95458  -0.00010   0.00000  -0.00061  -0.00061   1.95396
   A17        1.94786  -0.00011   0.00000  -0.00048  -0.00049   1.94737
   A18        1.95915  -0.00049   0.00000  -0.00327  -0.00327   1.95587
   A19        1.88580   0.00018   0.00000   0.00146   0.00146   1.88726
   A20        1.86099   0.00027   0.00000   0.00139   0.00139   1.86238
   A21        1.84962   0.00031   0.00000   0.00187   0.00187   1.85149
    D1       -3.12575   0.00009   0.00000   0.00519   0.00519  -3.12056
    D2       -0.97720  -0.00013   0.00000   0.00098   0.00099  -0.97621
    D3        1.00818   0.00004   0.00000   0.00384   0.00384   1.01202
    D4        1.05527   0.00016   0.00000   0.00652   0.00652   1.06179
    D5       -3.07937  -0.00006   0.00000   0.00232   0.00232  -3.07705
    D6       -1.09399   0.00011   0.00000   0.00518   0.00517  -1.08882
    D7       -1.03151   0.00006   0.00000   0.00463   0.00463  -1.02689
    D8        1.11704  -0.00016   0.00000   0.00043   0.00043   1.11746
    D9        3.10241   0.00001   0.00000   0.00329   0.00329   3.10570
   D10       -2.90913  -0.00004   0.00000  -0.00242  -0.00242  -2.91156
   D11        0.49475  -0.00011   0.00000  -0.01098  -0.01099   0.48376
   D12        1.23903  -0.00009   0.00000  -0.00088  -0.00088   1.23816
   D13       -1.64028  -0.00017   0.00000  -0.00944  -0.00944  -1.64971
   D14       -0.75694   0.00010   0.00000   0.00002   0.00001  -0.75692
   D15        2.64694   0.00002   0.00000  -0.00855  -0.00855   2.63839
   D16        2.87976   0.00005   0.00000   0.00138   0.00138   2.88114
   D17        0.76295  -0.00003   0.00000   0.00028   0.00028   0.76323
   D18       -1.31062  -0.00002   0.00000   0.00045   0.00045  -1.31017
   D19       -0.52546   0.00014   0.00000   0.01004   0.01004  -0.51542
   D20       -2.64227   0.00006   0.00000   0.00894   0.00894  -2.63333
   D21        1.56735   0.00007   0.00000   0.00910   0.00910   1.57645
         Item               Value     Threshold  Converged?
 Maximum Force            0.002716     0.000450     NO 
 RMS     Force            0.001183     0.000300     NO 
 Maximum Displacement     0.021726     0.001800     NO 
 RMS     Displacement     0.007112     0.001200     NO 
 Predicted change in Energy=-1.188098D-04
 GradGradGradGradGradGradGradGradGradGradGradGradGradGradGradGradGradGrad

                          Input orientation:                          
 ---------------------------------------------------------------------
 Center     Atomic      Atomic             Coordinates (Angstroms)
 Number     Number       Type             X           Y           Z
 ---------------------------------------------------------------------
      1          6           0       -1.936253   -0.178212    0.082436
      2          6           0       -0.579486    0.508648   -0.084307
      3          1           0       -2.753237    0.543012    0.043487
      4          1           0       -1.994074   -0.702530    1.037210
      5          1           0       -2.102062   -0.911449   -0.708976
      6          6           0        0.577017   -0.428249   -0.068375
      7          1           0       -0.585613    1.080307   -1.027541
      8          1           0       -0.446542    1.266374    0.697046
      9          6           0        1.973314    0.060579    0.073550
     10          1           0        0.414073   -1.447578   -0.399064
     11          1           0        2.663627   -0.745011    0.326360
     12          1           0        2.053027    0.831940    0.845174
     13          1           0        2.347657    0.518397   -0.855222
 ---------------------------------------------------------------------
                    Distance matrix (angstroms):
                    1          2          3          4          5
     1  C    0.000000
     2  C    1.529835   0.000000
     3  H    1.090479   2.177775   0.000000
     4  H    1.090800   2.173893   1.764989   0.000000
     5  H    1.091542   2.173735   1.762296   1.761952   0.000000
     6  C    2.530176   1.488466   3.470800   2.812127   2.796662
     7  H    2.154100   1.102961   2.476768   3.070092   2.523528
     8  H    2.164211   1.096510   2.504242   2.527281   3.075802
     9  C    3.916862   2.596627   4.751202   4.153449   4.262144
    10  H    2.714252   2.216541   3.766982   2.901233   2.591219
    11  H    4.641083   3.501156   5.575072   4.711824   4.879694
    12  H    4.185275   2.810441   4.881224   4.332494   4.766503
    13  H    4.440310   3.026974   5.179517   4.891072   4.676094
                    6          7          8          9         10
     6  C    0.000000
     7  H    2.132475   0.000000
     8  H    2.122567   1.740161   0.000000
     9  C    1.486183   2.966539   2.774597   0.000000
    10  H    1.083946   2.790083   3.050845   2.220165   0.000000
    11  H    2.147113   3.965147   3.722395   1.090605   2.465833
    12  H    2.145053   3.245176   2.541362   1.093963   3.070912
    13  H    2.156486   2.991573   3.282766   1.101066   2.794975
                   11         12         13
    11  H    0.000000
    12  H    1.768834   0.000000
    13  H    1.758457   1.753984   0.000000
 Stoichiometry    C4H9(2)
 Framework group  C1[X(C4H9)]
 Deg. of freedom    33
 Full point group                 C1      NOp   1
 Largest Abelian subgroup         C1      NOp   1
 Largest concise Abelian subgroup C1      NOp   1
                         Standard orientation:                         
 ---------------------------------------------------------------------
 Center     Atomic      Atomic             Coordinates (Angstroms)
 Number     Number       Type             X           Y           Z
 ---------------------------------------------------------------------
      1          6           0       -1.931564    0.168802   -0.087736
      2          6           0       -0.570059   -0.503698    0.097857
      3          1           0       -2.743528   -0.556685   -0.028355
      4          1           0       -1.993080    0.665714   -1.056828
      5          1           0       -2.102397    0.922788    0.682838
      6          6           0        0.579923    0.440369    0.055346
      7          1           0       -0.572162   -1.048698    1.056759
      8          1           0       -0.431920   -1.282108   -0.661965
      9          6           0        1.979564   -0.042567   -0.073173
     10          1           0        0.409942    1.467423    0.357351
     11          1           0        2.664261    0.760374   -0.348664
     12          1           0        2.064569   -0.834702   -0.822875
     13          1           0        2.357133   -0.471545    0.867978
 ---------------------------------------------------------------------
 Rotational constants (GHZ):          26.6638778           3.6443845           3.4307463
 Basis read from rwf:  (5D, 7F)
 There are   275 symmetry adapted cartesian basis functions of A   symmetry.
 There are   246 symmetry adapted basis functions of A   symmetry.
   246 basis functions,   366 primitive gaussians,   275 cartesian basis functions
    17 alpha electrons       16 beta electrons
       nuclear repulsion energy       122.2413126157 Hartrees.
 NAtoms=   13 NActive=   13 NUniq=   13 SFac= 1.00D+00 NAtFMM=   60 NAOKFM=F Big=F
 Integral buffers will be    131072 words long.
 Raffenetti 2 integral format.
 Two-electron integral symmetry is turned on.
 One-electron integrals computed using PRISM.
 NBasis=   246 RedAO= T EigKep=  2.95D-04  NBF=   246
 NBsUse=   246 1.00D-06 EigRej= -1.00D+00 NBFU=   246
 Initial guess from the checkpoint file:  "/wrk/irikura/Gau-20937.chk"
 B after Tr=    -0.000000   -0.000000    0.000000
         Rot=    1.000000    0.000915   -0.000096   -0.000096 Ang=   0.11 deg.
 Initial guess <Sx>= 0.0000 <Sy>= 0.0000 <Sz>= 0.5000 <S**2>= 0.7541 S= 0.5020
 ExpMin= 7.42D-02 ExpMax= 7.32D+03 ExpMxC= 2.50D+02 IAcc=3 IRadAn=         5 AccDes= 0.00D+00
 Harris functional with IExCor=  402 and IRadAn=       5 diagonalized for initial guess.
 HarFok:  IExCor=  402 AccDes= 0.00D+00 IRadAn=         5 IDoV= 1 UseB2=F ITyADJ=14
 ICtDFT=  3500011 ScaDFX=  1.000000  1.000000  1.000000  1.000000
 FoFCou: FMM=F IPFlag=           0 FMFlag=      100000 FMFlg1=           0
         NFxFlg=           0 DoJE=T BraDBF=F KetDBF=T FulRan=T
         wScrn=  0.000000 ICntrl=       500 IOpCl=  0 I1Cent=   200000004 NGrid=           0
         NMat0=    1 NMatS0=      1 NMatT0=    0 NMatD0=    1 NMtDS0=    0 NMtDT0=    0
 Petite list used in FoFCou.
 Requested convergence on RMS density matrix=1.00D-08 within 128 cycles.
 Requested convergence on MAX density matrix=1.00D-06.
 Requested convergence on             energy=1.00D-06.
 No special actions if energy rises.
 Integral accuracy reduced to 1.0D-05 until final iterations.
 Initial convergence to 1.0D-05 achieved.  Increase integral accuracy.
 SCF Done:  E(UB3LYP) =  -157.858767925     A.U. after    9 cycles
            NFock=  9  Conv=0.76D-08     -V/T= 2.0047
 <Sx>= 0.0000 <Sy>= 0.0000 <Sz>= 0.5000 <S**2>= 0.7541 S= 0.5020
 <L.S>=  0.00000000000    
 Annihilation of the first spin contaminant:
 S**2 before annihilation     0.7541,   after     0.7500
 Calling FoFJK, ICntrl=      2127 FMM=F ISym2X=0 I1Cent= 0 IOpClX= 1 NMat=1 NMatS=1 NMatT=0.
 ***** Axes restored to original set *****
 -------------------------------------------------------------------
 Center     Atomic                   Forces (Hartrees/Bohr)
 Number     Number              X              Y              Z
 -------------------------------------------------------------------
      1        6          -0.000082803    0.000044297   -0.000063466
      2        6          -0.000102490   -0.000137412    0.000094164
      3        1          -0.000013269   -0.000002999    0.000007347
      4        1          -0.000041170    0.000020338    0.000002911
      5        1          -0.000009451    0.000031225    0.000029607
      6        6           0.000019277   -0.000026598   -0.000347607
      7        1           0.000071998    0.000079275   -0.000014388
      8        1          -0.000030668   -0.000018373    0.000003057
      9        6           0.000167455   -0.000000830    0.000103552
     10        1          -0.000003777   -0.000075900    0.000240155
     11        1           0.000019116    0.000051729   -0.000072040
     12        1           0.000030003   -0.000026503    0.000001626
     13        1          -0.000024222    0.000061752    0.000015082
 -------------------------------------------------------------------
 Cartesian Forces:  Max     0.000347607 RMS     0.000088715

 GradGradGradGradGradGradGradGradGradGradGradGradGradGradGradGradGradGrad
 Berny optimization.
 Using GEDIIS/GDIIS optimizer.
 FormGI is forming the generalized inverse of G from B-inverse, IUseBI=4.
 Internal  Forces:  Max     0.000344259 RMS     0.000079782
 Search for a local minimum.
 Step number   2 out of a maximum of   64
 All quantities printed in internal units (Hartrees-Bohrs-Radians)
 Mixed Optimization -- En-DIIS/RFO-DIIS
 Update second derivatives using D2CorX and points    1    2
 DE= -1.21D-04 DEPred=-1.19D-04 R= 1.02D+00
 TightC=F SS=  1.41D+00  RLast= 3.78D-02 DXNew= 5.0454D-01 1.1348D-01
 Trust test= 1.02D+00 RLast= 3.78D-02 DXMaxT set to 3.00D-01
 ITU=  1  0
 Use linear search instead of GDIIS.
     Eigenvalues ---    0.00323   0.00845   0.00884   0.00961   0.03927
     Eigenvalues ---    0.05403   0.05451   0.05503   0.07088   0.07186
     Eigenvalues ---    0.09673   0.13044   0.15563   0.15978   0.16000
     Eigenvalues ---    0.16000   0.16000   0.16000   0.16037   0.21426
     Eigenvalues ---    0.22055   0.29235   0.32949   0.33080   0.33254
     Eigenvalues ---    0.33434   0.33762   0.34017   0.34208   0.34273
     Eigenvalues ---    0.34305   0.34927   0.35637
 RFO step:  Lambda=-5.76345260D-06 EMin= 3.22933978D-03
 Quartic linear search produced a step of  0.01471.
 Iteration  1 RMS(Cart)=  0.00328002 RMS(Int)=  0.00000620
 Iteration  2 RMS(Cart)=  0.00000660 RMS(Int)=  0.00000095
 Iteration  3 RMS(Cart)=  0.00000000 RMS(Int)=  0.00000095
 Variable       Old X    -DE/DX   Delta X   Delta X   Delta X     New X
                                 (Linear)    (Quad)   (Total)
    R1        2.89097   0.00009  -0.00010   0.00024   0.00014   2.89111
    R2        2.06071   0.00001  -0.00010  -0.00004  -0.00015   2.06056
    R3        2.06131  -0.00000  -0.00011  -0.00008  -0.00019   2.06112
    R4        2.06271  -0.00004  -0.00011  -0.00019  -0.00030   2.06242
    R5        2.81279   0.00017  -0.00012   0.00045   0.00033   2.81313
    R6        2.08429   0.00005  -0.00011   0.00010  -0.00001   2.08429
    R7        2.07210  -0.00001  -0.00011  -0.00011  -0.00022   2.07188
    R8        2.80848   0.00021  -0.00012   0.00058   0.00046   2.80893
    R9        2.04836  -0.00000  -0.00010  -0.00006  -0.00016   2.04820
   R10        2.06095  -0.00004  -0.00011  -0.00020  -0.00031   2.06064
   R11        2.06729  -0.00002  -0.00011  -0.00011  -0.00022   2.06707
   R12        2.08071   0.00000  -0.00010  -0.00005  -0.00015   2.08056
    A1        1.94293   0.00000  -0.00002  -0.00009  -0.00011   1.94282
    A2        1.93716   0.00004  -0.00000   0.00029   0.00028   1.93744
    A3        1.93616   0.00001   0.00000   0.00015   0.00015   1.93631
    A4        1.88542  -0.00003  -0.00000  -0.00032  -0.00032   1.88510
    A5        1.88029  -0.00001   0.00000  -0.00013  -0.00013   1.88016
    A6        1.87935  -0.00001   0.00002   0.00010   0.00012   1.87947
    A7        1.98811   0.00034   0.00005   0.00183   0.00188   1.98999
    A8        1.89757  -0.00006  -0.00000  -0.00014  -0.00014   1.89742
    A9        1.91784  -0.00010   0.00001  -0.00032  -0.00031   1.91753
   A10        1.91740  -0.00014  -0.00007  -0.00081  -0.00088   1.91652
   A11        1.91042  -0.00009  -0.00002  -0.00021  -0.00023   1.91020
   A12        1.82544   0.00003   0.00003  -0.00056  -0.00053   1.82491
   A13        2.12231  -0.00012  -0.00002  -0.00034  -0.00036   2.12195
   A14        2.06219   0.00009   0.00002   0.00087   0.00089   2.06308
   A15        2.07108   0.00004   0.00002   0.00056   0.00058   2.07166
   A16        1.95396   0.00007  -0.00001   0.00055   0.00054   1.95450
   A17        1.94737   0.00003  -0.00001   0.00017   0.00017   1.94754
   A18        1.95587  -0.00003  -0.00005  -0.00033  -0.00038   1.95549
   A19        1.88726  -0.00003   0.00002   0.00003   0.00005   1.88731
   A20        1.86238  -0.00002   0.00002  -0.00013  -0.00011   1.86227
   A21        1.85149  -0.00003   0.00003  -0.00034  -0.00031   1.85118
    D1       -3.12056   0.00001   0.00008   0.00135   0.00142  -3.11914
    D2       -0.97621   0.00002   0.00001   0.00146   0.00147  -0.97474
    D3        1.01202  -0.00003   0.00006   0.00054   0.00060   1.01262
    D4        1.06179   0.00003   0.00010   0.00162   0.00172   1.06351
    D5       -3.07705   0.00004   0.00003   0.00173   0.00177  -3.07528
    D6       -1.08882  -0.00002   0.00008   0.00082   0.00089  -1.08793
    D7       -1.02689   0.00001   0.00007   0.00121   0.00128  -1.02560
    D8        1.11746   0.00002   0.00001   0.00132   0.00133   1.11879
    D9        3.10570  -0.00004   0.00005   0.00041   0.00046   3.10615
   D10       -2.91156  -0.00002  -0.00004  -0.00346  -0.00350  -2.91505
   D11        0.48376  -0.00007  -0.00016  -0.00849  -0.00865   0.47511
   D12        1.23816  -0.00008  -0.00001  -0.00396  -0.00397   1.23418
   D13       -1.64971  -0.00012  -0.00014  -0.00899  -0.00913  -1.65884
   D14       -0.75692   0.00002   0.00000  -0.00273  -0.00273  -0.75965
   D15        2.63839  -0.00003  -0.00013  -0.00775  -0.00788   2.63051
   D16        2.88114   0.00004   0.00002   0.00340   0.00342   2.88456
   D17        0.76323   0.00000   0.00000   0.00285   0.00285   0.76608
   D18       -1.31017   0.00004   0.00001   0.00339   0.00339  -1.30678
   D19       -0.51542   0.00009   0.00015   0.00850   0.00864  -0.50678
   D20       -2.63333   0.00005   0.00013   0.00794   0.00808  -2.62526
   D21        1.57645   0.00009   0.00013   0.00848   0.00862   1.58507
         Item               Value     Threshold  Converged?
 Maximum Force            0.000344     0.000450     YES
 RMS     Force            0.000080     0.000300     YES
 Maximum Displacement     0.013893     0.001800     NO 
 RMS     Displacement     0.003281     0.001200     NO 
 Predicted change in Energy=-2.922351D-06
 GradGradGradGradGradGradGradGradGradGradGradGradGradGradGradGradGradGrad

                          Input orientation:                          
 ---------------------------------------------------------------------
 Center     Atomic      Atomic             Coordinates (Angstroms)
 Number     Number       Type             X           Y           Z
 ---------------------------------------------------------------------
      1          6           0       -1.937315   -0.177865    0.081246
[...]
 ! R7    R(2,8)                  1.0974         -DE/DX =    0.0                 !
 ! R8    R(6,9)                  1.4864         -DE/DX =    0.0                 !
 ! R9    R(6,10)                 1.0833         -DE/DX =    0.0                 !
 ! R10   R(9,11)                 1.0899         -DE/DX =    0.0                 !
 ! R11   R(9,12)                 1.0949         -DE/DX =    0.0                 !
 ! R12   R(9,13)                 1.1007         -DE/DX =    0.0                 !
 ! A1    A(2,1,3)              111.3238         -DE/DX =    0.0                 !
 ! A2    A(2,1,4)              111.0141         -DE/DX =    0.0                 !
 ! A3    A(2,1,5)              110.9587         -DE/DX =    0.0                 !
 ! A4    A(3,1,4)              107.9548         -DE/DX =    0.0                 !
 ! A5    A(3,1,5)              107.7373         -DE/DX =    0.0                 !
 ! A6    A(4,1,5)              107.6939         -DE/DX =    0.0                 !
 ! A7    A(1,2,6)              114.1099         -DE/DX =    0.0                 !
 ! A8    A(1,2,7)              108.9076         -DE/DX =    0.0                 !
 ! A9    A(1,2,8)              109.7841         -DE/DX =    0.0                 !
 ! A10   A(6,2,7)              109.7547         -DE/DX =    0.0                 !
 ! A11   A(6,2,8)              109.4359         -DE/DX =    0.0                 !
 ! A12   A(7,2,8)              104.399          -DE/DX =    0.0                 !
 ! A13   A(2,6,9)              121.325          -DE/DX =    0.0                 !
 ! A14   A(2,6,10)             118.551          -DE/DX =    0.0                 !
 ! A15   A(9,6,10)             119.0607         -DE/DX =    0.0                 !
 ! A16   A(6,9,11)             112.0548         -DE/DX =    0.0                 !
 ! A17   A(6,9,12)             111.5957         -DE/DX =    0.0                 !
 ! A18   A(6,9,13)             111.9821         -DE/DX =    0.0                 !
 ! A19   A(11,9,12)            108.0537         -DE/DX =    0.0                 !
 ! A20   A(11,9,13)            106.951          -DE/DX =    0.0                 !
 ! A21   A(12,9,13)            105.869          -DE/DX =    0.0                 !
 ! D1    D(3,1,2,6)           -179.0291         -DE/DX =    0.0                 !
 ! D2    D(3,1,2,7)            -56.0245         -DE/DX =    0.0                 !
 ! D3    D(3,1,2,8)             57.7134         -DE/DX =    0.0                 !
 ! D4    D(4,1,2,6)             60.6757         -DE/DX =    0.0                 !
 ! D5    D(4,1,2,7)           -176.3196         -DE/DX =    0.0                 !
 ! D6    D(4,1,2,8)            -62.5817         -DE/DX =    0.0                 !
 ! D7    D(5,1,2,6)            -59.0465         -DE/DX =    0.0                 !
 ! D8    D(5,1,2,7)             63.9581         -DE/DX =    0.0                 !
 ! D9    D(5,1,2,8)            177.696          -DE/DX =    0.0                 !
 ! D10   D(1,2,6,9)           -170.6253         -DE/DX =    0.0                 !
 ! D11   D(1,2,6,10)            21.279          -DE/DX =    0.0                 !
 ! D12   D(7,2,6,9)             66.8317         -DE/DX =    0.0                 !
 ! D13   D(7,2,6,10)          -101.264          -DE/DX =    0.0                 !
 ! D14   D(8,2,6,9)            -47.1793         -DE/DX =    0.0                 !
 ! D15   D(8,2,6,10)           144.725          -DE/DX =    0.0                 !
 ! D16   D(2,6,9,11)           169.6359         -DE/DX =    0.0                 !
 ! D17   D(2,6,9,12)            48.3042         -DE/DX =    0.0                 !
 ! D18   D(2,6,9,13)           -70.1804         -DE/DX =    0.0                 !
 ! D19   D(10,6,9,11)          -22.3277         -DE/DX =    0.0                 !
 ! D20   D(10,6,9,12)         -143.6593         -DE/DX =    0.0                 !
 ! D21   D(10,6,9,13)           97.856          -DE/DX =    0.0                 !
 --------------------------------------------------------------------------------
 GradGradGradGradGradGradGradGradGradGradGradGradGradGradGradGradGradGrad


 ----------------------------------------------------------------------

 Electric dipole moment (input orientation):
 (Debye = 10**-18 statcoulomb cm , SI units = C m)
                  (au)            (Debye)         (10**-30 SI)
   Tot        0.926627D-01      0.235525D+00      0.785627D+00
   x          0.216985D-01      0.551521D-01      0.183967D+00
   y          0.711451D-01      0.180833D+00      0.603194D+00
   z         -0.552624D-01     -0.140463D+00     -0.468534D+00

 Dipole polarizability, Alpha (input orientation).
 (esu units = cm**3 , SI units = C**2 m**2 J**-1)
 Alpha(0;0):
               (au)            (10**-24 esu)      (10**-40 SI)
   iso        0.517402D+02      0.766711D+01      0.853081D+01
   aniso      0.146811D+02      0.217551D+01      0.242058D+01
   xx         0.610201D+02      0.904225D+01      0.100609D+02
   yx         0.563773D+00      0.835425D-01      0.929536D-01
   yy         0.497033D+02      0.736527D+01      0.819497D+01
   zx        -0.445926D-01     -0.660795D-02     -0.735233D-02
   zy        -0.400863D+00     -0.594017D-01     -0.660933D-01
   zz         0.444971D+02      0.659379D+01      0.733659D+01

 ----------------------------------------------------------------------

 Dipole orientation:
     6         -3.47411017         -0.29292418         -1.18379736
     6         -1.19092288         -0.62265038          0.55672118
     1         -5.13226283         -1.26122464         -0.43618214
     1         -3.08799415         -1.05143995         -3.06137916
     1         -3.95512217          1.70102330         -1.39997794
     6          1.13149421          0.69161737         -0.33302704
     1         -1.69337081          0.04912486          2.46420617
     1         -0.78737729         -2.64091548          0.81044344
     6          3.61665326          0.26302901          0.90390774
     1          0.93264171          2.24273860         -1.65405740
     1          5.16802431          1.08780397         -0.17095767
     1          4.00751582         -1.75400728          1.14908872
     1          3.69104972          1.09257244          2.80989058

 Electric dipole moment (dipole orientation):
 (Debye = 10**-18 statcoulomb cm , SI units = C m)
                  (au)            (Debye)         (10**-30 SI)
   Tot        0.926627D-01      0.235525D+00      0.785627D+00
   x          0.000000D+00      0.000000D+00      0.000000D+00
   y          0.000000D+00      0.000000D+00      0.000000D+00
   z          0.926627D-01      0.235525D+00      0.785627D+00

 Dipole polarizability, Alpha (dipole orientation).
 (esu units = cm**3 , SI units = C**2 m**2 J**-1)
 Alpha(0;0):
               (au)            (10**-24 esu)      (10**-40 SI)
   iso        0.517402D+02      0.766711D+01      0.853081D+01
   aniso      0.146811D+02      0.217551D+01      0.242058D+01
   xx         0.598489D+02      0.886870D+01      0.986776D+01
   yx         0.187268D+01      0.277502D+00      0.308763D+00
   yy         0.463172D+02      0.686350D+01      0.763668D+01
   zx         0.361341D+01      0.535452D+00      0.595771D+00
   zy        -0.202341D+01     -0.299838D+00     -0.333615D+00
   zz         0.490544D+02      0.726912D+01      0.808799D+01

 ----------------------------------------------------------------------
 1\1\GINC-GAMBA\Freq\UB3LYP\Gen\C4H9(2)\IRIKURA\16-Jun-2022\0\\#N Geom=
 AllCheck Guess=TCheck SCRF=Check GenChk UB3LYP/ChkBas Freq\\2-butyl, B
 3LYP/pcseg-2\\0,2\C,-1.9394207184,-0.1761532684,0.0621141247\C,-0.5766
 84425,0.5049899491,-0.0702906406\H,-2.7518050384,0.5496087077,0.014117
 7756\H,-2.019982308,-0.7088481272,1.0106898324\H,-2.0931717518,-0.9008
 353581,-0.7393963842\C,0.5781457616,-0.4335813658,-0.0356904021\H,-0.5
 570325702,1.0857186461,-1.0074766328\H,-0.4593160513,1.2576582835,0.71
 96528716\C,1.9757959954,0.0639184057,0.0560262189\H,0.4052790681,-1.47
 61728782,-0.2736377293\H,2.6845097197,-0.740535441,0.2523817357\H,2.08
 56981726,0.8134622053,0.8465944061\H,2.2994321457,0.5570002412,-0.8733
 061761\\Version=ES64L-G16RevB.01\State=2-A\HF=-157.8587998\S2=0.754131
 \S2-1=0.\S2A=0.750012\RMSD=2.968e-09\RMSF=4.457e-06\ZeroPoint=0.116160
 9\Thermal=0.1225535\Dipole=0.0216985,0.0711451,-0.0552624\DipoleDeriv=
 0.0417723,-0.0285037,0.0066194,0.0135207,0.1045708,0.0043817,0.0060798
 ,0.0065777,0.121061,0.0604689,-0.0193216,0.0023723,0.0335262,0.0970498
 ,-0.025336,-0.0366735,-0.0223164,0.210033,-0.1210464,0.0721222,-0.0006
 373,0.1222322,-0.0425617,0.0070615,-0.0086934,0.0096187,0.0711072,0.03
 07413,-0.006126,-0.0159586,-0.0523687,0.0028151,0.0860693,0.0425244,0.
 0975293,-0.1002126,0.0290419,-0.0092736,0.0104136,-0.0619949,-0.044641
 4,-0.097679,-0.0332375,-0.1138649,-0.0589346,0.1591073,-0.010227,0.043
 2403,-0.026831,0.0917846,0.0876192,0.044116,0.0934048,-0.2742672,-0.03
 81107,-0.007415,0.0219751,0.0196174,-0.0423154,0.108626,-0.0043084,0.1
 456219,-0.1150969,-0.021356,-0.0341014,-0.0312533,-0.0217431,-0.074257
 9,-0.1007183,-0.0099726,-0.1336905,-0.0536332,-0.0092297,0.0256138,-0.
 0280868,-0.0034554,0.0855196,-0.0211468,0.0204682,-0.0245393,0.1674492
 ,-0.0435979,-0.0332391,-0.023928,-0.0132168,-0.1021592,-0.0554741,-0.0
 256073,-0.0713705,0.1159158,-0.0803061,0.070229,-0.0214212,0.1160486,-
 0.0469668,0.0301268,-0.0402505,0.0273126,0.0696067,0.0207589,0.0041939
 ,0.0108265,-0.0462044,-0.0434465,-0.1114577,-0.0468414,-0.1167847,-0.0
 499357,-0.0282438,-0.0239516,0.0258382,-0.079131,0.014609,0.0879274,0.
 0923961,0.1025014,-0.1030925\Polar=61.0201421,0.563773,49.7033111,-0.0
 445926,-0.4008627,44.497128\Quadrupole=0.0490383,0.2102143,-0.2592526,
 -0.1892589,0.0241073,0.2631075\PG=C01 [X(C4H9)]\NImag=0\\0.48591758,-0
 .04536310,0.54457281,0.00756373,0.00265727,0.56021342,-0.15899101,-0.0
 4427647,0.00941877,0.46254001,-0.04431541,-0.10357747,0.00290796,0.009
 43106,0.50431007,0.01048308,0.00234401,-0.07781424,0.00456604,0.024060
 84,0.50265008,-0.18773313,0.12896513,-0.00846044,-0.02078941,0.0208429
 5,-0.00108174,0.20654086,0.13107708,-0.16703050,0.00802964,-0.01366111
 ,0.01165202,-0.00047407,-0.14130510,0.17946825,-0.00885332,0.00841563,
 -0.04795668,0.00222468,-0.00257876,-0.00078577,0.00911819,-0.00917081,
 0.04676019,-0.04759452,-0.00621102,0.01260614,-0.00338298,-0.01489072,
 0.02723699,0.00178032,0.01039710,-0.02169111,0.05184069,-0.00700458,-0
 .10757356,0.10868185,-0.00179997,-0.00776763,0.01304217,-0.00181077,-0
 .01061938,0.01928334,0.01084862,0.11460004,0.01397881,0.10905428,-0.24
 610978,0.00043553,0.00057802,-0.00131602,-0.00070458,-0.00016380,-0.00
 035512,-0.01541478,-0.12119833,0.26581263,-0.05070053,-0.02030873,-0.0
 2383486,-0.00552578,-0.02068195,-0.02322718,0.00349609,0.01504414,0.01
 877991,-0.00067807,0.00144975,0.00096293,0.05548437,-0.02132336,-0.159
 03111,-0.12556933,-0.00279553,-0.01089068,-0.01125732,-0.00309284,-0.0
 1445851,-0.01626210,0.00227331,0.01163056,0.01180497,0.02652308,0.1721
 2206,-0.02483399,-0.12617284,-0.18969647,0.00042728,0.00302308,0.00294
 667,0.00105938,0.00193279,0.00148922,-0.00305809,-0.01922976,-0.020683
 83,0.02647860,0.13951358,0.20340139,-0.03244384,0.01928015,-0.00152693
 ,-0.16116539,0.05844966,-0.00438720,-0.00438365,-0.00215274,0.00060398
 ,0.00210260,0.00111184,-0.00047231,0.00204821,0.00129439,0.00019645,0.
 50449410,-0.00941795,0.01245232,-0.00052810,0.06587791,-0.14096879,-0.
 00355403,-0.00495960,-0.00170637,0.00041930,-0.00086534,0.00050273,0.0
 0008654,-0.00142994,0.00050169,-0.00028126,0.01777230,0.59291403,0.001
 21129,-0.00122577,-0.00068920,-0.00436934,-0.00441036,-0.05008514,0.00
 017902,0.00005446,0.00075462,0.00003170,-0.00055502,0.00055089,-0.0003
 4079,0.00053452,0.00022918,0.03239552,0.07622240,0.10759256,-0.0034319
 7,-0.01680032,0.02708930,-0.04347290,-0.00016253,-0.00234706,0.0012378
 5,0.00088834,0.00007995,-0.00545366,-0.00324721,0.00037102,0.00135069,
 0.00048409,-0.00059153,-0.00313995,0.01651276,-0.01897889,0.05229317,-
 0.00206384,-0.00805314,0.01348530,-0.00717474,-0.09997561,0.10278227,0
 .00017784,0.00076886,-0.00036528,-0.00277889,-0.00074067,0.00012543,0.
 00073768,-0.00011081,-0.00005685,0.00815123,-0.01785194,0.01617028,0.0
 0172288,0.11544322,0.00037151,0.00113929,-0.00247484,0.00842820,0.0962
 4080,-0.21066229,0.00056303,-0.00020763,-0.00004024,0.00063079,0.00004
 856,0.00152903,0.00015289,0.00018892,0.00087735,-0.00540149,0.00457699
 ,0.00344297,-0.00386464,-0.11296489,0.23355582,-0.00490138,-0.02060586
 ,-0.02261078,-0.05069519,-0.01630974,-0.01487178,0.00092315,0.00076815
 ,-0.00031174,0.00139677,0.00060028,0.00042731,-0.00536412,-0.00302821,
 0.00091351,0.00205208,0.01911579,0.01532915,0.00080972,-0.00015093,0.0
 0032062,0.05714176,-0.00218222,-0.00981219,-0.01030659,-0.02039655,-0.
 15158650,-0.12048696,0.00001460,0.00078529,0.00021457,0.00061769,-0.00
 016454,0.00022427,-0.00265353,-0.00049253,0.00058718,0.00280627,-0.021
 70955,-0.01280758,0.00126136,0.01037679,0.01099579,0.01801176,0.172502
 51,0.00013060,0.00334367,0.00310399,-0.01851832,-0.12003813,-0.1729008
 9,-0.00074179,-0.00006271,-0.00000482,-0.00038117,-0.00000683,0.000816
 48,0.00079883,0.00096113,0.00139901,0.00061015,0.00026506,0.00377162,-
 0.00325676,-0.01798640,-0.02500164,0.02051119,0.13177765,0.18926643,-0
 .00142807,0.00290864,-0.00053069,-0.02247806,-0.00766153,0.00030993,-0
 .00062987,-0.00070928,0.00009395,-0.00011925,-0.00002983,0.00011817,-0
 .00017289,-0.00010438,-0.00009113,-0.20731730,-0.04418734,-0.01206462,
 0.00141431,-0.00095563,-0.00008266,0.00142368,-0.00127690,-0.00013363,
 0.49179748,0.00263670,-0.00361044,0.00011778,0.01980509,0.01234383,-0.
 00109402,0.00151096,0.00079275,-0.00010482,0.00004892,0.00003742,-0.00
 024658,0.00014158,0.00019707,0.00035854,-0.03886134,-0.10313652,-0.008
 61848,-0.00070762,0.00030533,0.00011520,0.00030703,0.00044688,0.000219
 43,-0.04444257,0.53759429,0.00025791,0.00025967,0.00027262,-0.00323849
 ,-0.00170202,0.00028180,0.00007826,-0.00012231,0.00038566,-0.00008442,
 -0.00008251,0.00010220,-0.00001429,0.00015034,0.00012784,-0.01282019,-
 0.00860160,-0.04918073,0.00071995,-0.00030786,0.00074817,0.00111442,0.
 00052155,0.00045086,0.01252893,0.01278282,0.48262312,0.00218877,0.0008
 4769,0.00056818,0.00397639,0.02092762,0.00537196,0.00018816,-0.0002399
 3,-0.00009136,-0.00010379,-0.00012562,0.00031896,-0.00010937,-0.000324
 82,-0.00055360,-0.06053505,-0.04162063,-0.01255586,-0.00072625,0.00112
 499,-0.00022432,-0.00264662,0.00315035,0.00005289,-0.00216540,-0.02514
 425,-0.00779465,0.06381533,-0.00156608,0.00094124,0.00026281,-0.004681
 02,-0.01311291,-0.00655869,-0.00006913,0.00036941,0.00016142,0.0004317
 3,0.00014266,-0.00023789,0.00090262,0.00052390,0.00031726,-0.04162980,
 -0.31251833,-0.06369400,0.00045782,-0.00077617,0.00007471,0.00206548,-
 0.00151943,0.00127972,0.00170998,-0.00438551,-0.00329352,0.04414049,0.
 32880797,-0.00041031,-0.00014989,0.00031342,-0.00010255,0.00221427,0.0
 0587763,0.00001948,0.00020880,-0.00020536,0.00024498,0.00004528,-0.000
 30919,0.00004138,-0.00011459,-0.00002930,-0.01358977,-0.06914814,-0.02
 464826,0.00000236,-0.00035068,-0.00162889,0.00015463,-0.00137625,-0.00
 086804,-0.00007349,0.00045448,0.00529986,0.01427403,0.07054408,0.01900
 705,-0.00068837,0.00148875,-0.00019566,-0.00382306,-0.00446024,-0.0008
 2428,-0.00056393,-0.00028069,0.00007647,-0.00000274,-0.00004034,0.0001
 0470,-0.00003263,-0.00006095,-0.00009234,-0.02129512,0.02487404,-0.003
 45183,0.00012145,0.00010757,-0.00025751,0.00027448,-0.00020758,0.00013
 602,-0.15298616,0.12438503,-0.03183956,0.00158456,-0.00047664,0.000371
 61,0.16971176,-0.00046654,0.00034558,0.00013158,-0.00161168,-0.0003905
 2,0.00013653,-0.00013962,-0.00008852,0.00001210,0.00003182,0.00001751,
 0.00000105,0.00006976,0.00002833,-0.00002255,-0.00931800,0.01052106,-0
 .00231582,-0.00006855,-0.00001720,-0.00007338,-0.00014290,0.00020642,0
 .00026501,0.12642848,-0.19442316,0.03360877,0.00057574,0.00113915,-0.0
 0024487,-0.13626061,0.20915814,0.00001972,0.00022244,0.00043649,0.0001
 6352,-0.00052022,0.00085151,-0.00004347,-0.00002730,-0.00000329,-0.000
 06344,-0.00002395,-0.00000633,0.00007732,0.00001272,-0.00003457,0.0005
 4155,0.00106348,-0.00129937,0.00036249,-0.00030007,0.00014300,-0.00024
 296,0.00039359,0.00020509,-0.03274466,0.03360360,-0.05430847,0.0000391
 7,0.00021479,-0.00024490,0.03357974,-0.03901065,0.05445888,-0.00003692
 ,-0.00000392,0.00025799,0.00191408,-0.00086493,-0.00080851,0.00002275,
 0.00008261,0.00003961,0.00003269,-0.00003447,-0.00003036,0.00015024,0.
 00017565,0.00012016,-0.00483918,-0.02464586,-0.01938808,-0.00023858,0.
 00017163,0.00009582,-0.00015524,0.00086134,0.00066384,-0.04801911,-0.0
 1180822,-0.01923090,-0.00419458,-0.00102024,-0.00096095,0.00178217,0.0
 1243213,0.01606783,0.05248005,0.00004392,0.00022029,0.00024084,0.00084
 415,0.00017297,0.00093892,-0.00005992,0.00002816,0.00001037,-0.0000045
 1,-0.00004457,-0.00001315,0.00018563,0.00001294,0.00002332,-0.00696423
 ,-0.01152804,-0.00594934,0.00012257,0.00015536,-0.00004354,-0.00058045
 ,0.00072430,-0.00000549,-0.00850388,-0.15933947,-0.12455079,-0.0022919
 3,0.00050857,-0.00152758,-0.00263012,-0.01531616,-0.01719009,0.0185889
 8,0.17506642,-0.00005886,0.00033322,0.00024795,0.00040711,0.00002702,0
 .00035394,-0.00008750,-0.00000717,-0.00002133,0.00005605,0.00000537,-0
 .00001634,0.00015912,0.00003885,-0.00002865,-0.00131792,-0.00105734,0.
 00238065,-0.00017778,0.00002141,-0.00032622,-0.00063241,0.00027914,0.0
 0008528,-0.01662698,-0.12479472,-0.17468210,0.00031397,0.00100131,-0.0
 0094545,0.00165590,0.00508795,0.00525620,0.01715574,0.13802695,0.19112
 900,-0.00015661,0.00007907,-0.00034474,0.00189329,-0.00030425,-0.00042
 025,-0.00008918,0.00009145,-0.00006921,0.00018192,0.00008229,-0.000095
 42,0.00005380,-0.00002042,0.00002532,-0.01557750,-0.01702615,0.0220027
 4,-0.00076388,0.00093023,-0.00073224,-0.00025908,-0.00000659,0.0001281
 5,-0.05931935,-0.02787131,0.06032304,-0.00127215,-0.00026520,0.0000285
 8,0.00591759,0.00846997,-0.01775680,0.00110163,0.00124978,-0.00084643,
 0.06828952,-0.00005463,0.00015617,-0.00011102,0.00043887,-0.00020877,0
 .00012036,-0.00007449,0.00003854,-0.00003495,0.00010129,-0.00002057,-0
 .00001480,0.00001991,-0.00003289,0.00000751,-0.00993971,-0.00747228,0.
 00659470,-0.00046360,0.00047598,-0.00009083,-0.00005040,0.00024254,-0.
 00001211,-0.02317575,-0.08682244,0.09133747,-0.00101970,-0.00012056,-0
 .00055491,-0.00643823,-0.01118062,0.02156165,0.00606529,0.00933923,-0.
 01896201,0.03459114,0.09560567,0.00013984,-0.00022098,0.00015332,0.000
 15758,0.00019748,0.00060271,0.00010216,0.00001011,-0.00001707,-0.00011
 365,-0.00001018,-0.00001462,-0.00003386,-0.00000168,0.00000215,0.00516
 816,0.00053671,0.00718020,0.00059160,-0.00025266,-0.00016220,-0.000101
 17,-0.00001637,-0.00032338,0.04929687,0.08720676,-0.21212084,0.0002806
 3,-0.00007203,-0.00161857,0.00073675,0.00242429,-0.00545424,0.00601781
 ,0.01003959,-0.02343293,-0.06224273,-0.09984104,0.23520549\\-0.0000084
 5,-0.00000844,-0.00000109,-0.00000166,0.00000123,0.00000475,0.00000417
 ,-0.00000154,0.00000059,0.00000081,0.00000398,-0.00000305,0.00000153,0
 .00000556,0.00000335,0.00001293,0.00000901,-0.00000022,-0.00000054,-0.
 00000087,0.00000172,-0.00000105,-0.00000457,-0.00000497,-0.00000492,-0
 .00000864,0.00000507,-0.00000204,0.00000219,0.00000020,-0.00000456,0.0
 0000256,-0.00000314,0.00000091,-0.00000139,-0.00000526,0.00000287,0.00
 000090,0.00000207\\\@


 READER, WHETHER YOU BE DILETTANTE OR PROFESSOR ... SHOW YOURSELF TO BE
 MORE HUMAN THAN CRITICAL, AND THEN YOUR PLEASURE WILL INCREASE.
                                           -- DOMENICO SCARLATTI (1738)
 Job cpu time:       0 days  0 hours 54 minutes 39.9 seconds.
 Elapsed time:       0 days  0 hours  4 minutes 33.3 seconds.
 File lengths (MBytes):  RWF=    112 Int=      0 D2E=      0 Chk=      8 Scr=      1
 Normal termination of Gaussian 16 at Thu Jun 16 15:33:04 2022.
