 Entering Gaussian System, Link 0=g16
 AtFile(1): pcseg2.gbs
            -H     0
            S   4   1.00
                  0.754732D+02           0.427821D-02
                  0.113575D+02           0.328672D-01
                  0.260081D+01           0.159578D+00
                  0.735503D+00           0.500000D+00
            S   1   1.00
                  0.231761D+00           1.0000000
            S   1   1.00
                  0.741675D-01           1.0000000
            P   1   1.00
                  0.160000D+01           1.0000000
            P   1   1.00
                  0.450000D+00           1.0000000
            D   1   1.00
                  0.125000D+01           1.0000000
            ****
            -C     0
            S   7   1.00
                  0.731999D+04           0.695369D-03
                  0.109818D+04           0.537138D-02
                  0.250014D+03           0.274734D-01
                  0.707586D+02           0.105078D+00
                  0.228595D+02           0.291262D+00
                  0.803936D+01           0.500000D+00
                  0.289309D+01           0.362224D+00
            S   2   1.00
                  0.521640D+01          -0.957844D-01
                  0.556124D+00           0.500000D+00
            S   1   1.00
                  0.228813D+00           1.0000000
            S   1   1.00
                  0.936338D-01           1.0000000
            P   4   1.00
                  0.339855D+02           0.818395D-02
                  0.772957D+01           0.586921D-01
                  0.224954D+01           0.222514D+00
                  0.767681D+00           0.500000D+00
            P   1   1.00
                  0.263283D+00           1.0000000
            P   1   1.00
                  0.848744D-01           1.0000000
            D   1   1.00
                  0.140000D+01           1.0000000
            D   1   1.00
                  0.450000D+00           1.0000000
            F   1   1.00
                  0.950000D+00           1.0000000
            ****
            -O     0
            S   7   1.00
                  0.135887D+05           0.665492D-03
                  0.203847D+04           0.514222D-02
                  0.464041D+03           0.263472D-01
                  0.131339D+03           0.101500D+00
                  0.425340D+02           0.285877D+00
                  0.150429D+02           0.500000D+00
                  0.546616D+01           0.368211D+00
            S   2   1.00
                  0.100915D+02          -0.100084D+00
                  0.110429D+01           0.500000D+00
            S   1   1.00
                  0.448082D+00           1.0000000
            S   1   1.00
                  0.175325D+00           1.0000000
            P   4   1.00
                  0.608220D+02           0.908253D-02
                  0.140332D+02           0.645878D-01
                  0.418244D+01           0.241502D+00
                  0.142490D+01           0.500000D+00
            P   1   1.00
                  0.478741D+00           1.0000000
            P   1   1.00
                  0.146257D+00           1.0000000
            D   1   1.00
                  0.220000D+01           1.0000000
            D   1   1.00
                  0.650000D+00           1.0000000
            F   1   1.00
                  0.110000D+01           1.0000000
            ****
            -N     0
            S   7   1.00
                  0.101643D+05           0.682757D-03
                  0.152481D+04           0.527488D-02
                  0.347119D+03           0.270037D-01
                  0.982389D+02           0.103673D+00
                  0.317799D+02           0.289575D+00
                  0.112240D+02           0.500000D+00
                  0.406611D+01           0.364621D+00
            S   2   1.00
                  0.747898D+01          -0.975681D-01
                  0.805040D+00           0.500000D+00
            S   1   1.00
                  0.324626D+00           1.0000000
            S   1   1.00
                  0.128132D+00           1.0000000
            P   4   1.00
                  0.482704D+02           0.829547D-02
                  0.110815D+02           0.596223D-01
                  0.326643D+01           0.227889D+00
                  0.111680D+01           0.500000D+00
            P   1   1.00
                  0.382049D+00           1.0000000
            P   1   1.00
                  0.121222D+00           1.0000000
            D   1   1.00
                  0.180000D+01           1.0000000
            D   1   1.00
                  0.550000D+00           1.0000000
            F   1   1.00
                  0.102000D+01           1.0000000
            ****
            -F     0
            S   7   1.00
                  0.174507D+05           0.655972D-03
                  0.261768D+04           0.506944D-02
                  0.595857D+03           0.259899D-01
                  0.168651D+03           0.100353D+00
                  0.546654D+02           0.284095D+00
                  0.193717D+02           0.500000D+00
                  0.706202D+01           0.370721D+00
            S   2   1.00
                  0.131197D+02          -0.101997D+00
                  0.145046D+01           0.500000D+00
            S   1   1.00
                  0.588255D+00           1.0000000
            S   1   1.00
                  0.227960D+00           1.0000000
            P   4   1.00
                  0.779407D+02           0.931135D-02
                  0.180425D+02           0.663964D-01
                  0.542342D+01           0.246386D+00
                  0.184876D+01           0.500000D+00
            P   1   1.00
                  0.617455D+00           1.0000000
            P   1   1.00
                  0.185496D+00           1.0000000
            D   1   1.00
                  0.280000D+01           1.0000000
            D   1   1.00
                  0.800000D+00           1.0000000
            F   1   1.00
                  0.120000D+01           1.0000000
            ****
            -Cl     0
            S   8   1.00
                  0.154272D+06           0.222473D-03
                  0.231232D+05           0.172590D-02
                  0.526257D+04           0.899286D-02
                  0.148995D+04           0.367724D-01
                  0.485417D+03           0.121446D+00
                  0.174634D+03           0.304148D+00
                  0.672393D+02           0.500000D+00
                  0.265780D+02           0.360252D+00
            S   3   1.00
                  0.131826D+03          -0.531330D-01
                  0.400703D+02          -0.233346D+00
                  0.789448D+01           0.500000D+00
            S   2   1.00
                  0.427711D+01           0.500000D+00
                  0.196233D+01           0.370517D+00
            S   1   1.00
                  0.520793D+00           1.0000000
            S   1   1.00
                  0.181633D+00           1.0000000
            P   7   1.00
                  0.124440D+04           0.988206D-03
                  0.295109D+03           0.829674D-02
                  0.947224D+02           0.430906D-01
                  0.352588D+02           0.148443D+00
                  0.144211D+02           0.344744D+00
                  0.610371D+01           0.500000D+00
                  0.258886D+01           0.348278D+00
            P   2   1.00
                  0.109447D+02          -0.196768D-01
                  0.104413D+01           0.500000D+00
            P   1   1.00
                  0.376184D+00           1.0000000
            P   1   1.00
                  0.120613D+00           1.0000000
            D   1   1.00
                  0.231000D+01           1.0000000
            D   1   1.00
                  0.520000D+00           1.0000000
            F   1   1.00
                  0.720000D+00           1.0000000
            ****
            -S     0
            S   8   1.00
                  0.134700D+06           0.226231D-03
                  0.201904D+05           0.175488D-02
                  0.459528D+04           0.914190D-02
                  0.130109D+04           0.373551D-01
                  0.423902D+03           0.123121D+00
                  0.152485D+03           0.306801D+00
                  0.586925D+02           0.500000D+00
                  0.231461D+02           0.354358D+00
            S   3   1.00
                  0.116327D+03          -0.491772D-01
                  0.352841D+02          -0.215962D+00
                  0.677831D+01           0.500000D+00
            S   2   1.00
                  0.360404D+01           0.500000D+00
                  0.164871D+01           0.366278D+00
            S   1   1.00
                  0.421821D+00           1.0000000
            S   1   1.00
                  0.147554D+00           1.0000000
            P   7   1.00
                  0.104863D+04           0.105273D-02
                  0.248717D+03           0.879338D-02
                  0.797887D+02           0.453358D-01
                  0.296023D+02           0.154476D+00
                  0.120627D+02           0.352366D+00
                  0.507628D+01           0.500000D+00
                  0.213375D+01           0.346429D+00
            P   2   1.00
                  0.928958D+01          -0.185932D-01
                  0.837819D+00           0.500000D+00
            P   1   1.00
                  0.301495D+00           1.0000000
            P   1   1.00
                  0.974740D-01           1.0000000
            D   1   1.00
                  0.210000D+01           1.0000000
            D   1   1.00
                  0.480000D+00           1.0000000
            F   1   1.00
                  0.660000D+00           1.0000000
            ****
            -Br     0
            S    10   1.00
                  0.233625D+07           0.532336D-04
                  0.349961D+06           0.413715D-03
                  0.796444D+05           0.217123D-02
                  0.225555D+05           0.910109D-02
                  0.735546D+04           0.323789D-01
                  0.265352D+04           0.988755D-01
                  0.103517D+04           0.248138D+00
                  0.422205D+03           0.474328D+00
                  0.180035D+03           0.500000D+00
                  0.793308D+02           0.187769D+00
            S    4   1.00
                  0.620834D+03          -0.226511D-01
                  0.190829D+03          -0.109497D+00
                  0.312505D+02           0.500000D+00
                  0.135270D+02           0.492812D+00
            S    2   1.00
                  0.216097D+02          -0.165418D+00
                  0.372566D+01           0.500000D+00
            S    1   1.00
                  0.169770D+01           1.0000000
            S    1   1.00
                  0.489332D+00           1.0000000
            S    1   1.00
                  0.175712D+00           1.0000000
            P    8   1.00
                  0.960829D+04           0.478974D-03
                  0.227618D+04           0.417853D-02
                  0.736723D+03           0.229315D-01
                  0.281579D+03           0.892653D-01
                  0.118395D+03           0.255288D+00
                  0.527481D+02           0.479074D+00
                  0.245098D+02           0.500000D+00
                  0.112009D+02           0.200944D+00
            P    4   1.00
                  0.587849D+02          -0.189674D-01
                  0.918962D+01           0.264104D+00
                  0.413895D+01           0.500000D+00
                  0.184225D+01           0.319316D+00
            P    1   1.00
                  0.713862D+00           1.0000000
            P    1   1.00
                  0.274232D+00           1.0000000
            P    1   1.00
                  0.944411D-01           1.0000000
            D    7   1.00
                  0.398470D+03           0.204066D-02
                  0.118967D+03           0.175171D-01
                  0.450197D+02           0.829708D-01
                  0.190320D+02           0.236284D+00
                  0.855686D+01           0.428468D+00
                  0.382950D+01           0.500000D+00
                  0.166291D+01           0.349360D+00
            D    1   1.00
                  0.672953D+00           1.0000000
            D    1   1.00
                  0.252000D+00           1.0000000
            F    1   1.00
                  0.530000D+00           1.0000000
            ****
            -Si     0
            S    8   1.00
                  0.996133D+05           0.235546D-03
                  0.149311D+05           0.182707D-02
                  0.339820D+04           0.951425D-02
                  0.962140D+03           0.388172D-01
                  0.313430D+03           0.127328D+00
                  0.112683D+03           0.313522D+00
                  0.433372D+02           0.500000D+00
                  0.170029D+02           0.340347D+00
            S    3   1.00
                  0.884208D+02          -0.404451D-01
                  0.266756D+02          -0.178059D+00
                  0.479640D+01           0.500000D+00
            S    2   1.00
                  0.239385D+01           0.500000D+00
                  0.108333D+01           0.338016D+00
            S    1   1.00
                  0.252420D+00           1.0000000
            S    1   1.00
                  0.891210D-01           1.0000000
            P    7   1.00
                  0.709901D+03           0.123028D-02
                  0.168426D+03           0.101366D-01
                  0.539946D+02           0.511840D-01
                  0.198646D+02           0.169967D+00
                  0.801369D+01           0.370717D+00
                  0.331870D+01           0.500000D+00
                  0.136112D+01           0.344128D+00
            P    2   1.00
                  0.622158D+01          -0.166609D-01
                  0.503049D+00           0.500000D+00
            P    1   1.00
                  0.179848D+00           1.0000000
            P    1   1.00
                  0.591912D-01           1.0000000
            D    1   1.00
                  0.168000D+01           1.0000000
            D    1   1.00
                  0.380000D+00           1.0000000
            F    1   1.00
                  0.540000D+00           1.0000000
            ****
            -P     0
            S    8   1.00
                  0.116416D+06           0.230715D-03
                  0.174500D+05           0.178960D-02
                  0.397149D+04           0.932116D-02
                  0.112447D+04           0.380591D-01
                  0.366347D+03           0.125148D+00
                  0.131757D+03           0.310022D+00
                  0.506988D+02           0.500000D+00
                  0.199436D+02           0.347528D+00
            S    3   1.00
                  0.101878D+03          -0.446755D-01
                  0.308249D+02          -0.196376D+00
                  0.573688D+01           0.500000D+00
            S    2   1.00
                  0.296868D+01           0.500000D+00
                  0.135315D+01           0.355098D+00
            S    1   1.00
                  0.332196D+00           1.0000000
            S    1   1.00
                  0.116229D+00           1.0000000
            P    7   1.00
                  0.873928D+03           0.112375D-02
                  0.207298D+03           0.933330D-02
                  0.664628D+02           0.477213D-01
                  0.245665D+02           0.160733D+00
                  0.996820D+01           0.359760D+00
                  0.416536D+01           0.500000D+00
                  0.173022D+01           0.346593D+00
            P    2   1.00
                  0.772530D+01          -0.175718D-01
                  0.657252D+00           0.500000D+00
            P    1   1.00
                  0.239903D+00           1.0000000
            P    1   1.00
                  0.800988D-01           1.0000000
            D    1   1.00
                  0.189000D+01           1.0000000
            D    1   1.00
                  0.430000D+00           1.0000000
            F    1   1.00
                  0.600000D+00           1.0000000
            ****
            
 Initial command:
 /usr/local/apps/g16_b01_avx/g16/l1.exe "/wrk/irikura/Gau-325149.inp" -scrdir="/wrk/irikura/"
 Entering Link 1 = /usr/local/apps/g16_b01_avx/g16/l1.exe PID=    325151.
  
 Copyright (c) 1988-2017, Gaussian, Inc.  All Rights Reserved.
  
 This is part of the Gaussian(R) 16 program.  It is based on
 the Gaussian(R) 09 system (copyright 2009, Gaussian, Inc.),
 the Gaussian(R) 03 system (copyright 2003, Gaussian, Inc.),
 the Gaussian(R) 98 system (copyright 1998, Gaussian, Inc.),
 the Gaussian(R) 94 system (copyright 1995, Gaussian, Inc.),
 the Gaussian 92(TM) system (copyright 1992, Gaussian, Inc.),
 the Gaussian 90(TM) system (copyright 1990, Gaussian, Inc.),
 the Gaussian 88(TM) system (copyright 1988, Gaussian, Inc.),
 the Gaussian 86(TM) system (copyright 1986, Carnegie Mellon
 University), and the Gaussian 82(TM) system (copyright 1983,
 Carnegie Mellon University). Gaussian is a federally registered
 trademark of Gaussian, Inc.
  
 This software contains proprietary and confidential information,
 including trade secrets, belonging to Gaussian, Inc.
  
 This software is provided under written license and may be
 used, copied, transmitted, or stored only in accord with that
 written license.
  
 The following legend is applicable only to US Government
 contracts under FAR:
  
                    RESTRICTED RIGHTS LEGEND
  
 Use, reproduction and disclosure by the US Government is
 subject to restrictions as set forth in subparagraphs (a)
 and (c) of the Commercial Computer Software - Restricted
 Rights clause in FAR 52.227-19.
  
 Gaussian, Inc.
 340 Quinnipiac St., Bldg. 40, Wallingford CT 06492
  
  
 ---------------------------------------------------------------
 Warning -- This program may not be used in any manner that
 competes with the business of Gaussian, Inc. or will provide
 assistance to any competitor of Gaussian, Inc.  The licensee
 of this program is prohibited from giving any competitor of
 Gaussian, Inc. access to this program.  By using this program,
 the user acknowledges that Gaussian, Inc. is engaged in the
 business of creating and licensing software in the field of
 computational chemistry and represents and warrants to the
 licensee that it is not a competitor of Gaussian, Inc. and that
 it will not use this program in any manner prohibited above.
 ---------------------------------------------------------------
  

 Cite this work as:
 Gaussian 16, Revision B.01,
 M. J. Frisch, G. W. Trucks, H. B. Schlegel, G. E. Scuseria, 
 M. A. Robb, J. R. Cheeseman, G. Scalmani, V. Barone, 
 G. A. Petersson, H. Nakatsuji, X. Li, M. Caricato, A. V. Marenich, 
 J. Bloino, B. G. Janesko, R. Gomperts, B. Mennucci, H. P. Hratchian, 
 J. V. Ortiz, A. F. Izmaylov, J. L. Sonnenberg, D. Williams-Young, 
 F. Ding, F. Lipparini, F. Egidi, J. Goings, B. Peng, A. Petrone, 
 T. Henderson, D. Ranasinghe, V. G. Zakrzewski, J. Gao, N. Rega, 
 G. Zheng, W. Liang, M. Hada, M. Ehara, K. Toyota, R. Fukuda, 
 J. Hasegawa, M. Ishida, T. Nakajima, Y. Honda, O. Kitao, H. Nakai, 
 T. Vreven, K. Throssell, J. A. Montgomery, Jr., J. E. Peralta, 
 F. Ogliaro, M. J. Bearpark, J. J. Heyd, E. N. Brothers, K. N. Kudin, 
 V. N. Staroverov, T. A. Keith, R. Kobayashi, J. Normand, 
 K. Raghavachari, A. P. Rendell, J. C. Burant, S. S. Iyengar, 
 J. Tomasi, M. Cossi, J. M. Millam, M. Klene, C. Adamo, R. Cammi, 
 J. W. Ochterski, R. L. Martin, K. Morokuma, O. Farkas, 
 J. B. Foresman, and D. J. Fox, Gaussian, Inc., Wallingford CT, 2016.
 
 ******************************************
 Gaussian 16:  ES64L-G16RevB.01 20-Dec-2017
                17-Sep-2023 
 ******************************************
 %mem=1000mw
 %nprocs=12
 Will use up to   12 processors via shared memory.
 ---------------------------------------
 # b3lyp/gen opt freq CPHF(Grid=OneStep)
 ---------------------------------------
 1/18=20,19=15,26=3,38=1/1,3;
 2/9=110,12=2,17=6,18=5,40=1/2;
 3/5=7,11=2,25=1,30=1,71=1,74=-5/1,2,3;
 4//1;
 5/5=2,38=5/2;
 6/7=2,8=2,9=2,10=2,28=1/1;
 7//1,2,3,16;
 1/18=20,19=15,26=3/3(2);
 2/9=110/2;
 99//99;
 2/9=110/2;
 3/5=7,6=1,11=2,25=1,30=1,71=1,74=-5,82=7/1,2,3;
 4/5=5,16=3,69=1/1;
 5/5=2,38=5/2;
 7//1,2,3,16;
 1/18=20,19=15,26=3/3(-5);
 2/9=110/2;
 6/7=2,8=2,9=2,10=2,19=2,28=1/1;
 99/9=1/99;
 -----------------------
 disilane, B3LYP/pcseg-2
 -----------------------
 Symbolic Z-matrix:
 Charge =  0 Multiplicity = 1
 Si                    0.        0.        1.17904 
 Si                    0.        0.       -1.17904 
 H                     0.        1.39646   1.69762 
 H                    -1.20937  -0.69823   1.69762 
 H                     1.20937  -0.69823   1.69762 
 H                     0.       -1.39646  -1.69762 
 H                    -1.20937   0.69823  -1.69762 
 H                     1.20937   0.69823  -1.69762 
 

 GradGradGradGradGradGradGradGradGradGradGradGradGradGradGradGradGradGrad
 Berny optimization.
 Initialization pass.
                           ----------------------------
                           !    Initial Parameters    !
                           ! (Angstroms and Degrees)  !
 --------------------------                            --------------------------
 ! Name  Definition              Value          Derivative Info.                !
 --------------------------------------------------------------------------------
 ! R1    R(1,2)                  2.3581         estimate D2E/DX2                !
 ! R2    R(1,3)                  1.4896         estimate D2E/DX2                !
 ! R3    R(1,4)                  1.4896         estimate D2E/DX2                !
 ! R4    R(1,5)                  1.4896         estimate D2E/DX2                !
 ! R5    R(2,6)                  1.4896         estimate D2E/DX2                !
 ! R6    R(2,7)                  1.4896         estimate D2E/DX2                !
 ! R7    R(2,8)                  1.4896         estimate D2E/DX2                !
 ! A1    A(2,1,3)              110.3726         estimate D2E/DX2                !
 ! A2    A(2,1,4)              110.3726         estimate D2E/DX2                !
 ! A3    A(2,1,5)              110.3726         estimate D2E/DX2                !
 ! A4    A(3,1,4)              108.5549         estimate D2E/DX2                !
 ! A5    A(3,1,5)              108.5549         estimate D2E/DX2                !
 ! A6    A(4,1,5)              108.555          estimate D2E/DX2                !
 ! A7    A(1,2,6)              110.3726         estimate D2E/DX2                !
 ! A8    A(1,2,7)              110.3726         estimate D2E/DX2                !
 ! A9    A(1,2,8)              110.3726         estimate D2E/DX2                !
 ! A10   A(6,2,7)              108.5549         estimate D2E/DX2                !
 ! A11   A(6,2,8)              108.5549         estimate D2E/DX2                !
 ! A12   A(7,2,8)              108.555          estimate D2E/DX2                !
 ! D1    D(3,1,2,6)            180.0            estimate D2E/DX2                !
 ! D2    D(3,1,2,7)            -60.0            estimate D2E/DX2                !
 ! D3    D(3,1,2,8)             60.0            estimate D2E/DX2                !
 ! D4    D(4,1,2,6)            -60.0            estimate D2E/DX2                !
 ! D5    D(4,1,2,7)             60.0            estimate D2E/DX2                !
 ! D6    D(4,1,2,8)            180.0            estimate D2E/DX2                !
 ! D7    D(5,1,2,6)             60.0            estimate D2E/DX2                !
 ! D8    D(5,1,2,7)            180.0            estimate D2E/DX2                !
 ! D9    D(5,1,2,8)            -60.0            estimate D2E/DX2                !
 --------------------------------------------------------------------------------
 Trust Radius=3.00D-01 FncErr=1.00D-07 GrdErr=1.00D-06 EigMax=2.50D+02 EigMin=1.00D-04
 Number of steps in this run=     38 maximum allowed number of steps=    100.
 GradGradGradGradGradGradGradGradGradGradGradGradGradGradGradGradGradGrad

                          Input orientation:                          
 ---------------------------------------------------------------------
 Center     Atomic      Atomic             Coordinates (Angstroms)
 Number     Number       Type             X           Y           Z
 ---------------------------------------------------------------------
      1         14           0        0.000000    0.000000    1.179043
      2         14           0        0.000000    0.000000   -1.179043
      3          1           0        0.000000    1.396461    1.697623
      4          1           0       -1.209371   -0.698230    1.697623
      5          1           0        1.209371   -0.698230    1.697623
      6          1           0        0.000000   -1.396461   -1.697623
      7          1           0       -1.209371    0.698230   -1.697623
      8          1           0        1.209371    0.698230   -1.697623
 ---------------------------------------------------------------------
                    Distance matrix (angstroms):
                    1          2          3          4          5
     1  Si   0.000000
     2  Si   2.358086   0.000000
     3  H    1.489640   3.197704   0.000000
     4  H    1.489640   3.197704   2.418741   0.000000
     5  H    1.489640   3.197704   2.418741   2.418742   0.000000
     6  H    3.197704   1.489640   4.396374   3.671212   3.671212
     7  H    3.197704   1.489640   3.671212   3.671212   4.396375
     8  H    3.197704   1.489640   3.671212   4.396375   3.671212
                    6          7          8
     6  H    0.000000
     7  H    2.418741   0.000000
     8  H    2.418741   2.418742   0.000000
 Stoichiometry    H6Si2
 Framework group  S6[C3(Si.Si),X(H6)]
 Deg. of freedom     3
 Full point group                 S6      NOp   6
 Largest Abelian subgroup         CI      NOp   2
 Largest concise Abelian subgroup CI      NOp   2
                         Standard orientation:                         
 ---------------------------------------------------------------------
 Center     Atomic      Atomic             Coordinates (Angstroms)
 Number     Number       Type             X           Y           Z
 ---------------------------------------------------------------------
      1         14           0        0.000000    0.000000    1.179043
      2         14           0        0.000000    0.000000   -1.179043
      3          1           0        1.396461    0.000000    1.697623
      4          1           0       -0.698230    1.209371    1.697623
      5          1           0       -0.698231   -1.209371    1.697623
      6          1           0       -1.396461    0.000000   -1.697623
      7          1           0        0.698231    1.209371   -1.697623
      8          1           0        0.698230   -1.209371   -1.697623
 ---------------------------------------------------------------------
 Rotational constants (GHZ):          42.8571398           4.9984687           4.9984687
 General basis read from cards:  (5D, 7F)
 There are    84 symmetry adapted cartesian basis functions of AG  symmetry.
 There are    84 symmetry adapted cartesian basis functions of AU  symmetry.
 There are    76 symmetry adapted basis functions of AG  symmetry.
 There are    76 symmetry adapted basis functions of AU  symmetry.
   152 basis functions,   248 primitive gaussians,   168 cartesian basis functions
    17 alpha electrons       17 beta electrons
       nuclear repulsion energy        90.2638211114 Hartrees.
 NAtoms=    8 NActive=    8 NUniq=    2 SFac= 4.00D+00 NAtFMM=   60 NAOKFM=F Big=F
 Integral buffers will be    131072 words long.
 Raffenetti 2 integral format.
 Two-electron integral symmetry is turned on.
 One-electron integrals computed using PRISM.
 NBasis=   152 RedAO= T EigKep=  6.81D-03  NBF=    76    76
 NBsUse=   152 1.00D-06 EigRej= -1.00D+00 NBFU=    76    76
 ExpMin= 5.92D-02 ExpMax= 9.96D+04 ExpMxC= 9.62D+02 IAcc=3 IRadAn=         5 AccDes= 0.00D+00
 Harris functional with IExCor=  402 and IRadAn=       5 diagonalized for initial guess.
 HarFok:  IExCor=  402 AccDes= 0.00D+00 IRadAn=         5 IDoV= 1 UseB2=F ITyADJ=14
 ICtDFT=  3500011 ScaDFX=  1.000000  1.000000  1.000000  1.000000
 FoFCou: FMM=F IPFlag=           0 FMFlag=      100000 FMFlg1=           0
         NFxFlg=           0 DoJE=T BraDBF=F KetDBF=T FulRan=T
         wScrn=  0.000000 ICntrl=       500 IOpCl=  0 I1Cent=   200000004 NGrid=           0
         NMat0=    1 NMatS0=      1 NMatT0=    0 NMatD0=    1 NMtDS0=    0 NMtDT0=    0
 Petite list used in FoFCou.
 Initial guess orbital symmetries:
       Occupied  (AG) (AU) (AG) (AU) (EU) (EU) (EG) (EG) (AG) (AU)
                 (AG) (AU) (EU) (EU) (EG) (EG) (AG)
       Virtual   (EU) (EU) (AU) (AG) (EG) (EG) (AU) (AG) (EU) (EU)
                 (EG) (EG) (AU) (AG) (EU) (EU) (EG) (EG) (AU) (EU)
                 (EU) (AG) (EG) (EG) (AG) (AU) (EG) (EG) (EU) (EU)
                 (AU) (AG) (AU) (EU) (EU) (EG) (EG) (AU) (EU) (EU)
                 (AG) (EG) (EG) (EU) (EU) (AG) (AG) (EG) (EG) (AU)
                 (EG) (EG) (EU) (EU) (AU) (AG) (EU) (EU) (EG) (EG)
                 (EU) (EU) (AU) (AG) (AU) (AU) (EG) (EG) (AG) (EU)
                 (EU) (EG) (EG) (AG) (AU) (EU) (EU) (AG) (EG) (EG)
                 (EU) (EU) (EG) (EG) (AU) (AU) (AG) (EU) (EU) (EG)
                 (EG) (EG) (EG) (EU) (EU) (AG) (AU) (EU) (EU) (AG)
                 (EG) (EG) (EU) (EU) (EG) (EG) (AU) (AG) (AU) (EU)
                 (EU) (AG) (EG) (EG) (AU) (AU) (AG) (EG) (EG) (EU)
                 (EU) (AG) (AU) (EU) (EU) (EG) (EG) (AU) (AG) (EU)
                 (EU) (EG) (EG) (AU) (AG)
 The electronic state of the initial guess is 1-AG.
 Keep R1 ints in memory in symmetry-blocked form, NReq=101446831.
 Requested convergence on RMS density matrix=1.00D-08 within 128 cycles.
 Requested convergence on MAX density matrix=1.00D-06.
 Requested convergence on             energy=1.00D-06.
 No special actions if energy rises.
 Integral accuracy reduced to 1.0D-05 until final iterations.
 Initial convergence to 1.0D-05 achieved.  Increase integral accuracy.
 SCF Done:  E(RB3LYP) =  -582.657509453     A.U. after    9 cycles
            NFock=  9  Conv=0.72D-08     -V/T= 2.0011

 **********************************************************************

            Population analysis using the SCF Density.

 **********************************************************************

 Orbital symmetries:
       Occupied  (AG) (AU) (AG) (AU) (AG) (EU) (EU) (EG) (EG) (AU)
                 (AG) (AU) (EU) (EU) (EG) (EG) (AG)
       Virtual   (AU) (EU) (EU) (AG) (EG) (EG) (AU) (AG) (EU) (EU)
                 (EG) (EG) (AU) (AG) (EU) (EU) (EG) (EG) (AU) (EU)
                 (EU) (AG) (AU) (EG) (EG) (AG) (EG) (EG) (EU) (EU)
                 (AU) (AG) (AU) (EU) (EU) (EG) (EG) (AU) (EU) (EU)
                 (AG) (EG) (EG) (EU) (EU) (AG) (AG) (EG) (EG) (AU)
                 (EG) (EG) (EU) (EU) (AU) (AG) (EU) (EU) (EG) (EG)
                 (EU) (EU) (AU) (AG) (AU) (AG) (AU) (EG) (EG) (EG)
                 (EG) (EU) (EU) (AG) (AU) (EU) (EU) (AG) (EG) (EG)
                 (EU) (EU) (EG) (EG) (AU) (AU) (AG) (EU) (EU) (EG)
                 (EG) (EG) (EG) (EU) (EU) (AG) (AU) (EU) (EU) (AG)
                 (EG) (EG) (EU) (EU) (EG) (EG) (AU) (AG) (AU) (EU)
                 (EU) (AG) (EG) (EG) (AU) (AU) (AG) (EG) (EG) (EU)
                 (EU) (AG) (AU) (EU) (EU) (EG) (EG) (AU) (AG) (EU)
                 (EU) (EG) (EG) (AU) (AG)
 The electronic state is 1-AG.
 Alpha  occ. eigenvalues --  -66.08574 -66.08574  -5.27176  -5.27167  -3.62925
 Alpha  occ. eigenvalues --   -3.62886  -3.62886  -3.62881  -3.62881  -3.62868
 Alpha  occ. eigenvalues --   -0.57071  -0.50963  -0.36779  -0.36779  -0.34483
 Alpha  occ. eigenvalues --   -0.34483  -0.30095
 Alpha virt. eigenvalues --    0.00349   0.00372   0.00372   0.00655   0.03585
 Alpha virt. eigenvalues --    0.03585   0.05746   0.08512   0.10497   0.10497
 Alpha virt. eigenvalues --    0.13208   0.13208   0.18472   0.23762   0.24575
 Alpha virt. eigenvalues --    0.24575   0.27646   0.27646   0.29810   0.34214
 Alpha virt. eigenvalues --    0.34214   0.40547   0.47157   0.48174   0.48174
 Alpha virt. eigenvalues --    0.48997   0.65295   0.65295   0.66446   0.66446
 Alpha virt. eigenvalues --    0.73575   0.73699   0.77664   0.81910   0.81910
 Alpha virt. eigenvalues --    0.85963   0.85963   0.97177   1.00968   1.00968
 Alpha virt. eigenvalues --    1.02913   1.08496   1.08496   1.09756   1.09756
 Alpha virt. eigenvalues --    1.19136   1.21536   1.23538   1.23538   1.27774
 Alpha virt. eigenvalues --    1.34812   1.34812   1.39329   1.39329   1.41199
 Alpha virt. eigenvalues --    1.59864   1.63620   1.63620   1.69383   1.69383
 Alpha virt. eigenvalues --    1.70657   1.70657   1.79088   1.79182   1.85393
 Alpha virt. eigenvalues --    1.88025   1.88132   1.90095   1.90095   2.01249
 Alpha virt. eigenvalues --    2.01249   2.01338   2.01338   2.16595   2.23432
 Alpha virt. eigenvalues --    3.08113   3.08113   3.11696   3.18551   3.18551
 Alpha virt. eigenvalues --    3.36477   3.36477   3.43455   3.43455   3.49326
 Alpha virt. eigenvalues --    3.76090   3.76095   3.77460   3.77460   3.79993
 Alpha virt. eigenvalues --    3.79993   3.85773   3.85773   3.89370   3.89370
 Alpha virt. eigenvalues --    3.91919   3.96057   4.02103   4.02103   4.02433
 Alpha virt. eigenvalues --    4.08479   4.08479   4.12454   4.12454   4.15259
 Alpha virt. eigenvalues --    4.15259   4.19722   4.20050   4.24907   4.34371
 Alpha virt. eigenvalues --    4.34371   4.35570   4.38702   4.38702   4.44557
 Alpha virt. eigenvalues --    4.48499   4.50365   4.57062   4.57062   4.57945
 Alpha virt. eigenvalues --    4.57945   4.59064   4.67308   4.78153   4.78153
 Alpha virt. eigenvalues --    4.78775   4.78775   5.01374   5.02760   5.05513
 Alpha virt. eigenvalues --    5.05513   5.10148   5.10148  14.53814  14.72405
          Condensed to atoms (all electrons):
               1          2          3          4          5          6
     1  Si  12.175946   0.413653   0.370356   0.370356   0.370356  -0.026400
     2  Si   0.413653  12.175946  -0.026400  -0.026400  -0.026400   0.370356
     3  H    0.370356  -0.026400   0.833238  -0.026187  -0.026187   0.002374
     4  H    0.370356  -0.026400  -0.026187   0.833238  -0.026187  -0.000508
     5  H    0.370356  -0.026400  -0.026187  -0.026187   0.833238  -0.000508
     6  H   -0.026400   0.370356   0.002374  -0.000508  -0.000508   0.833238
     7  H   -0.026400   0.370356  -0.000508  -0.000508   0.002374  -0.026187
     8  H   -0.026400   0.370356  -0.000508   0.002374  -0.000508  -0.026187
               7          8
     1  Si  -0.026400  -0.026400
     2  Si   0.370356   0.370356
     3  H   -0.000508  -0.000508
     4  H   -0.000508   0.002374
     5  H    0.002374  -0.000508
     6  H   -0.026187  -0.026187
     7  H    0.833238  -0.026187
     8  H   -0.026187   0.833238
 Mulliken charges:
               1
     1  Si   0.378535
     2  Si   0.378535
     3  H   -0.126178
     4  H   -0.126178
     5  H   -0.126178
     6  H   -0.126178
     7  H   -0.126178
     8  H   -0.126178
 Sum of Mulliken charges =   0.00000
 Mulliken charges with hydrogens summed into heavy atoms:
               1
     1  Si   0.000000
     2  Si   0.000000
 Electronic spatial extent (au):  <R**2>=            313.8027
 Charge=              0.0000 electrons
 Dipole moment (field-independent basis, Debye):
    X=              0.0000    Y=             -0.0000    Z=              0.0000  Tot=              0.0000
 Quadrupole moment (field-independent basis, Debye-Ang):
   XX=            -31.5890   YY=            -31.5890   ZZ=            -32.6823
   XY=             -0.0000   XZ=             -0.0000   YZ=             -0.0000
 Traceless Quadrupole moment (field-independent basis, Debye-Ang):
   XX=              0.3644   YY=              0.3644   ZZ=             -0.7289
   XY=             -0.0000   XZ=             -0.0000   YZ=             -0.0000
 Octapole moment (field-independent basis, Debye-Ang**2):
  XXX=              0.0000  YYY=             -0.0000  ZZZ=              0.0000  XYY=              0.0000
  XXY=             -0.0000  XXZ=              0.0000  XZZ=              0.0000  YZZ=             -0.0000
  YYZ=              0.0000  XYZ=              0.0000
 Hexadecapole moment (field-independent basis, Debye-Ang**3):
 XXXX=            -86.4131 YYYY=            -86.4131 ZZZZ=           -364.6742 XXXY=             -0.0000
 XXXZ=             -2.3538 YYYX=             -0.0000 YYYZ=              0.0000 ZZZX=              0.0000
 ZZZY=             -0.0000 XXYY=            -28.8044 XXZZ=            -79.8414 YYZZ=            -79.8414
 XXYZ=             -0.0000 YYXZ=              2.3538 ZZXY=             -0.0000
 N-N= 9.026382111136D+01 E-N=-1.567947499455D+03  KE= 5.820333049576D+02
 Symmetry AG   KE= 2.922664870387D+02
 Symmetry AU   KE= 2.897668179189D+02
 Calling FoFJK, ICntrl=      2127 FMM=F ISym2X=1 I1Cent= 0 IOpClX= 0 NMat=1 NMatS=1 NMatT=0.
 ***** Axes restored to original set *****
 -------------------------------------------------------------------
 Center     Atomic                   Forces (Hartrees/Bohr)
 Number     Number              X              Y              Z
 -------------------------------------------------------------------
      1       14          -0.000000000    0.000000000    0.000893562
      2       14          -0.000000000   -0.000000000   -0.000893562
      3        1           0.000000324   -0.002245088   -0.000836796
      4        1           0.001944141    0.001122825   -0.000836796
      5        1          -0.001944466    0.001122263   -0.000836796
      6        1          -0.000000324    0.002245088    0.000836796
      7        1           0.001944466   -0.001122263    0.000836796
      8        1          -0.001944141   -0.001122825    0.000836796
 -------------------------------------------------------------------
 Cartesian Forces:  Max     0.002245088 RMS     0.001225439

 GradGradGradGradGradGradGradGradGradGradGradGradGradGradGradGradGradGrad
 Berny optimization.
 FormGI is forming the generalized inverse of G from B-inverse, IUseBI=4.
 Internal  Forces:  Max     0.002395964 RMS     0.001150437
 Search for a local minimum.
 Step number   1 out of a maximum of   38
 All quantities printed in internal units (Hartrees-Bohrs-Radians)
 Mixed Optimization -- RFO/linear search
 Second derivative matrix not updated -- first step.
 ITU=  0
     Eigenvalues ---    0.00230   0.05548   0.05548   0.05548   0.05548
     Eigenvalues ---    0.12731   0.16000   0.16000   0.16000   0.16000
     Eigenvalues ---    0.16000   0.16000   0.17326   0.17326   0.17326
     Eigenvalues ---    0.17326   0.17326   0.17326
 RFO step:  Lambda=-2.19045638D-04 EMin= 2.30000000D-03
 Linear search not attempted -- first point.
 Iteration  1 RMS(Cart)=  0.00809902 RMS(Int)=  0.00000008
 Iteration  2 RMS(Cart)=  0.00000016 RMS(Int)=  0.00000000
 ClnCor:  largest displacement from symmetrization is 6.67D-09 for atom     8.
 Variable       Old X    -DE/DX   Delta X   Delta X   Delta X     New X
                                 (Linear)    (Quad)   (Total)
    R1        4.45614  -0.00162   0.00000  -0.01268  -0.01268   4.44346
    R2        2.81501  -0.00240   0.00000  -0.01381  -0.01381   2.80120
    R3        2.81501  -0.00240   0.00000  -0.01381  -0.01381   2.80120
    R4        2.81501  -0.00240   0.00000  -0.01381  -0.01381   2.80120
    R5        2.81501  -0.00240   0.00000  -0.01381  -0.01381   2.80120
    R6        2.81501  -0.00240   0.00000  -0.01381  -0.01381   2.80120
    R7        2.81501  -0.00240   0.00000  -0.01381  -0.01381   2.80120
    A1        1.92637  -0.00000   0.00000  -0.00002  -0.00002   1.92634
    A2        1.92637  -0.00000   0.00000  -0.00002  -0.00002   1.92634
    A3        1.92637  -0.00000   0.00000  -0.00002  -0.00002   1.92634
    A4        1.89464   0.00000   0.00000   0.00003   0.00003   1.89467
    A5        1.89464   0.00000   0.00000   0.00003   0.00003   1.89467
    A6        1.89464   0.00000   0.00000   0.00003   0.00003   1.89467
    A7        1.92637  -0.00000   0.00000  -0.00002  -0.00002   1.92634
    A8        1.92637  -0.00000   0.00000  -0.00002  -0.00002   1.92634
    A9        1.92637  -0.00000   0.00000  -0.00002  -0.00002   1.92634
   A10        1.89464   0.00000   0.00000   0.00003   0.00003   1.89467
   A11        1.89464   0.00000   0.00000   0.00003   0.00003   1.89467
   A12        1.89464   0.00000   0.00000   0.00003   0.00003   1.89467
    D1        3.14159   0.00000   0.00000  -0.00000   0.00000   3.14159
    D2       -1.04720  -0.00000   0.00000  -0.00000  -0.00000  -1.04720
    D3        1.04720  -0.00000   0.00000  -0.00000  -0.00000   1.04720
    D4       -1.04720   0.00000   0.00000  -0.00000   0.00000  -1.04720
    D5        1.04720  -0.00000   0.00000  -0.00000   0.00000   1.04720
    D6        3.14159  -0.00000   0.00000  -0.00000   0.00000  -3.14159
    D7        1.04720   0.00000   0.00000  -0.00000   0.00000   1.04720
    D8        3.14159  -0.00000   0.00000  -0.00000  -0.00000   3.14159
    D9       -1.04720  -0.00000   0.00000  -0.00000  -0.00000  -1.04720
         Item               Value     Threshold  Converged?
 Maximum Force            0.002396     0.000450     NO 
 RMS     Force            0.001150     0.000300     NO 
 Maximum Displacement     0.012923     0.001800     NO 
 RMS     Displacement     0.008099     0.001200     NO 
 Predicted change in Energy=-1.096660D-04
 GradGradGradGradGradGradGradGradGradGradGradGradGradGradGradGradGradGrad

                          Input orientation:                          
 ---------------------------------------------------------------------
 Center     Atomic      Atomic             Coordinates (Angstroms)
 Number     Number       Type             X           Y           Z
 ---------------------------------------------------------------------
      1         14           0       -0.000000   -0.000000    1.175689
      2         14           0        0.000000    0.000000   -1.175689
      3          1           0       -0.000000    1.389622    1.691690
      4          1           0       -1.203448   -0.694811    1.691690
      5          1           0        1.203448   -0.694811    1.691690
      6          1           0        0.000000   -1.389622   -1.691690
      7          1           0       -1.203448    0.694811   -1.691690
      8          1           0        1.203448    0.694811   -1.691690
 ---------------------------------------------------------------------
                    Distance matrix (angstroms):
                    1          2          3          4          5
     1  Si   0.000000
     2  Si   2.351377   0.000000
     3  H    1.482332   3.186363   0.000000
     4  H    1.482332   3.186363   2.406896   0.000000
     5  H    1.482332   3.186363   2.406896   2.406896   0.000000
     6  H    3.186363   1.482332   4.378523   3.657638   3.657638
     7  H    3.186363   1.482332   3.657638   3.657638   4.378523
     8  H    3.186363   1.482332   3.657638   4.378523   3.657638
                    6          7          8
     6  H    0.000000
     7  H    2.406896   0.000000
     8  H    2.406896   2.406896   0.000000
 Stoichiometry    H6Si2
 Framework group  D3D[C3(Si.Si),3SGD(H2)]
 Deg. of freedom     3
 Full point group                 D3D     NOp  12
 Omega: Change in point group or standard orientation.

 Old FWG=S06  [C3(Si1.Si1),X(H6)]
 New FWG=D03D [C3(Si1.Si1),3SGD(H2)]
 Largest Abelian subgroup         C2H     NOp   4
 Largest concise Abelian subgroup C2H     NOp   4
                         Standard orientation:                         
 ---------------------------------------------------------------------
 Center     Atomic      Atomic             Coordinates (Angstroms)
 Number     Number       Type             X           Y           Z
 ---------------------------------------------------------------------
      1         14           0        0.000000    0.000000    1.175689
      2         14           0       -0.000000   -0.000000   -1.175689
      3          1           0        0.000000    1.389622    1.691690
      4          1           0       -1.203448   -0.694811    1.691690
      5          1           0        1.203448   -0.694811    1.691690
      6          1           0       -0.000000   -1.389622   -1.691690
      7          1           0       -1.203448    0.694811   -1.691690
      8          1           0        1.203448    0.694811   -1.691690
 ---------------------------------------------------------------------
 Rotational constants (GHZ):          43.2800043           5.0293673           5.0293673
 Basis read from rwf:  (5D, 7F)
 There are    53 symmetry adapted cartesian basis functions of AG  symmetry.
 There are    31 symmetry adapted cartesian basis functions of BG  symmetry.
 There are    31 symmetry adapted cartesian basis functions of AU  symmetry.
 There are    53 symmetry adapted cartesian basis functions of BU  symmetry.
 There are    47 symmetry adapted basis functions of AG  symmetry.
 There are    29 symmetry adapted basis functions of BG  symmetry.
 There are    29 symmetry adapted basis functions of AU  symmetry.
 There are    47 symmetry adapted basis functions of BU  symmetry.
   152 basis functions,   248 primitive gaussians,   168 cartesian basis functions
    17 alpha electrons       17 beta electrons
       nuclear repulsion energy        90.5970566710 Hartrees.
 NAtoms=    8 NActive=    8 NUniq=    2 SFac= 4.00D+00 NAtFMM=   60 NAOKFM=F Big=F
 Integral buffers will be    131072 words long.
 Raffenetti 2 integral format.
 Two-electron integral symmetry is turned on.
 One-electron integrals computed using PRISM.
 NBasis=   152 RedAO= T EigKep=  6.67D-03  NBF=    47    29    29    47
 NBsUse=   152 1.00D-06 EigRej= -1.00D+00 NBFU=    47    29    29    47
 Initial guess from the checkpoint file:  "/wrk/irikura/Gau-325151.chk"
 B after Tr=    -0.000000   -0.000000   -0.000000
         Rot=    0.707107    0.000000    0.000000   -0.707107 Ang= -90.00 deg.
 Initial guess orbital symmetries:
       Occupied  (A1G) (A2U) (A1G) (A2U) (A1G) (EU) (EU) (EG) (EG)
                 (A2U) (A1G) (A2U) (EU) (EU) (EG) (EG) (A1G)
       Virtual   (A2U) (EU) (EU) (A1G) (EG) (EG) (A2U) (A1G) (EU)
                 (EU) (EG) (EG) (A2U) (A1G) (EU) (EU) (EG) (EG)
                 (A2U) (EU) (EU) (A1G) (A2U) (EG) (EG) (A1G) (EG)
                 (EG) (EU) (EU) (A1U) (A2G) (A2U) (EU) (EU) (EG)
                 (EG) (A2U) (EU) (EU) (A1G) (EG) (EG) (EU) (EU)
                 (A1G) (A1G) (EG) (EG) (A2U) (EG) (EG) (EU) (EU)
                 (A2U) (A1G) (EU) (EU) (EG) (EG) (EU) (EU) (A2U)
                 (A1G) (A1U) (A2G) (A2U) (EG) (EG) (EG) (EG) (EU)
                 (EU) (A1G) (A2U) (EU) (EU) (A1G) (EG) (EG) (EU)
                 (EU) (EG) (EG) (A2U) (A1U) (A2G) (EU) (EU) (EG)
                 (EG) (EG) (EG) (EU) (EU) (A1G) (A2U) (EU) (EU)
                 (A1G) (EG) (EG) (EU) (EU) (EG) (EG) (A1U) (A2G)
                 (A2U) (EU) (EU) (A1G) (EG) (EG) (A2U) (A1U) (A2G)
                 (EG) (EG) (EU) (EU) (A1G) (A2U) (EU) (EU) (EG)
                 (EG) (A2U) (A1G) (EU) (EU) (EG) (EG) (A2U) (A1G)
 Keep R1 ints in memory in symmetry-blocked form, NReq=84613431.
 Requested convergence on RMS density matrix=1.00D-08 within 128 cycles.
 Requested convergence on MAX density matrix=1.00D-06.
 Requested convergence on             energy=1.00D-06.
 No special actions if energy rises.
 An orbital has undefined symmetry, so N**3 symmetry is turned off.
 SCF Done:  E(RB3LYP) =  -582.657614722     A.U. after    7 cycles
            NFock=  7  Conv=0.81D-09     -V/T= 2.0010
 Calling FoFJK, ICntrl=      2127 FMM=F ISym2X=1 I1Cent= 0 IOpClX= 0 NMat=1 NMatS=1 NMatT=0.
 ***** Axes restored to original set *****
 -------------------------------------------------------------------
 Center     Atomic                   Forces (Hartrees/Bohr)
 Number     Number              X              Y              Z
 -------------------------------------------------------------------
      1       14          -0.000000000    0.000000000   -0.000322157
      2       14          -0.000000000   -0.000000000    0.000322157
      3        1          -0.000000000    0.000141500    0.000042335
      4        1          -0.000122542   -0.000070750    0.000042335
      5        1           0.000122542   -0.000070750    0.000042335
      6        1           0.000000000   -0.000141500   -0.000042335
      7        1          -0.000122542    0.000070750   -0.000042335
      8        1           0.000122542    0.000070750   -0.000042335
 -------------------------------------------------------------------
 Cartesian Forces:  Max     0.000322157 RMS     0.000118753

 GradGradGradGradGradGradGradGradGradGradGradGradGradGradGradGradGradGrad
 Berny optimization.
 Using GEDIIS/GDIIS optimizer.
 FormGI is forming the generalized inverse of G from B-inverse, IUseBI=4.
 Internal  Forces:  Max     0.000195150 RMS     0.000078036
 Search for a local minimum.
 Step number   2 out of a maximum of   38
 All quantities printed in internal units (Hartrees-Bohrs-Radians)
 Mixed Optimization -- En-DIIS/RFO-DIIS
 Update second derivatives using D2CorX and points    1    2
 DE= -1.05D-04 DEPred=-1.10D-04 R= 9.60D-01
 TightC=F SS=  1.41D+00  RLast= 3.61D-02 DXNew= 5.0454D-01 1.0838D-01
 Trust test= 9.60D-01 RLast= 3.61D-02 DXMaxT set to 3.00D-01
 ITU=  1  0
 Use linear search instead of GDIIS.
     Eigenvalues ---    0.00230   0.05548   0.05548   0.05548   0.05548
     Eigenvalues ---    0.12390   0.15995   0.16000   0.16000   0.16000
     Eigenvalues ---    0.16000   0.16000   0.17326   0.17326   0.17326
     Eigenvalues ---    0.17326   0.17326   0.18624
 RFO step:  Lambda=-5.81041892D-07 EMin= 2.30000000D-03
 Quartic linear search produced a step of -0.04191.
 Iteration  1 RMS(Cart)=  0.00052917 RMS(Int)=  0.00000002
 Iteration  2 RMS(Cart)=  0.00000003 RMS(Int)=  0.00000000
 ClnCor:  largest displacement from symmetrization is 6.54D-12 for atom     8.
 Variable       Old X    -DE/DX   Delta X   Delta X   Delta X     New X
                                 (Linear)    (Quad)   (Total)
    R1        4.44346  -0.00020   0.00053  -0.00205  -0.00151   4.44194
    R2        2.80120   0.00015   0.00058   0.00019   0.00077   2.80197
    R3        2.80120   0.00015   0.00058   0.00019   0.00077   2.80197
    R4        2.80120   0.00015   0.00058   0.00019   0.00077   2.80197
    R5        2.80120   0.00015   0.00058   0.00019   0.00077   2.80197
    R6        2.80120   0.00015   0.00058   0.00019   0.00077   2.80197
    R7        2.80120   0.00015   0.00058   0.00019   0.00077   2.80197
    A1        1.92634  -0.00001   0.00000  -0.00008  -0.00008   1.92626
    A2        1.92634  -0.00001   0.00000  -0.00008  -0.00008   1.92626
    A3        1.92634  -0.00001   0.00000  -0.00008  -0.00008   1.92626
    A4        1.89467   0.00001  -0.00000   0.00008   0.00008   1.89475
    A5        1.89467   0.00001  -0.00000   0.00008   0.00008   1.89475
    A6        1.89467   0.00001  -0.00000   0.00008   0.00008   1.89475
    A7        1.92634  -0.00001   0.00000  -0.00008  -0.00008   1.92626
    A8        1.92634  -0.00001   0.00000  -0.00008  -0.00008   1.92626
    A9        1.92634  -0.00001   0.00000  -0.00008  -0.00008   1.92626
   A10        1.89467   0.00001  -0.00000   0.00008   0.00008   1.89475
   A11        1.89467   0.00001  -0.00000   0.00008   0.00008   1.89475
   A12        1.89467   0.00001  -0.00000   0.00008   0.00008   1.89475
    D1        3.14159  -0.00000   0.00000   0.00000   0.00000   3.14159
    D2       -1.04720   0.00000  -0.00000   0.00000   0.00000  -1.04720
    D3        1.04720  -0.00000   0.00000   0.00000   0.00000   1.04720
    D4       -1.04720   0.00000   0.00000   0.00000   0.00000  -1.04720
    D5        1.04720   0.00000   0.00000   0.00000   0.00000   1.04720
    D6        3.14159   0.00000   0.00000   0.00000  -0.00000   3.14159
    D7        1.04720  -0.00000   0.00000  -0.00000   0.00000   1.04720
    D8        3.14159  -0.00000   0.00000   0.00000   0.00000  -3.14159
    D9       -1.04720  -0.00000   0.00000  -0.00000   0.00000  -1.04720
         Item               Value     Threshold  Converged?
 Maximum Force            0.000195     0.000450     YES
 RMS     Force            0.000078     0.000300     YES
 Maximum Displacement     0.000797     0.001800     YES
 RMS     Displacement     0.000529     0.001200     YES
 Predicted change in Energy=-4.964554D-07
 Optimization completed.
    -- Stationary point found.
                           ----------------------------
                           !   Optimized Parameters   !
                           ! (Angstroms and Degrees)  !
 --------------------------                            --------------------------
 ! Name  Definition              Value          Derivative Info.                !
 --------------------------------------------------------------------------------
 ! R1    R(1,2)                  2.3514         -DE/DX =   -0.0002              !
 ! R2    R(1,3)                  1.4823         -DE/DX =    0.0001              !
 ! R3    R(1,4)                  1.4823         -DE/DX =    0.0001              !
 ! R4    R(1,5)                  1.4823         -DE/DX =    0.0001              !
 ! R5    R(2,6)                  1.4823         -DE/DX =    0.0001              !
 ! R6    R(2,7)                  1.4823         -DE/DX =    0.0001              !
 ! R7    R(2,8)                  1.4823         -DE/DX =    0.0001              !
 ! A1    A(2,1,3)              110.3712         -DE/DX =    0.0                 !
 ! A2    A(2,1,4)              110.3712         -DE/DX =    0.0                 !
 ! A3    A(2,1,5)              110.3712         -DE/DX =    0.0                 !
 ! A4    A(3,1,4)              108.5564         -DE/DX =    0.0                 !
 ! A5    A(3,1,5)              108.5564         -DE/DX =    0.0                 !
 ! A6    A(4,1,5)              108.5564         -DE/DX =    0.0                 !
 ! A7    A(1,2,6)              110.3712         -DE/DX =    0.0                 !
 ! A8    A(1,2,7)              110.3712         -DE/DX =    0.0                 !
 ! A9    A(1,2,8)              110.3712         -DE/DX =    0.0                 !
 ! A10   A(6,2,7)              108.5564         -DE/DX =    0.0                 !
 ! A11   A(6,2,8)              108.5564         -DE/DX =    0.0                 !
 ! A12   A(7,2,8)              108.5564         -DE/DX =    0.0                 !
 ! D1    D(3,1,2,6)            180.0            -DE/DX =    0.0                 !
 ! D2    D(3,1,2,7)            -60.0            -DE/DX =    0.0                 !
 ! D3    D(3,1,2,8)             60.0            -DE/DX =    0.0                 !
 ! D4    D(4,1,2,6)            -60.0            -DE/DX =    0.0                 !
 ! D5    D(4,1,2,7)             60.0            -DE/DX =    0.0                 !
 ! D6    D(4,1,2,8)            180.0            -DE/DX =    0.0                 !
 ! D7    D(5,1,2,6)             60.0            -DE/DX =    0.0                 !
 ! D8    D(5,1,2,7)           -180.0            -DE/DX =    0.0                 !
 ! D9    D(5,1,2,8)            -60.0            -DE/DX =    0.0                 !
 --------------------------------------------------------------------------------
 GradGradGradGradGradGradGradGradGradGradGradGradGradGradGradGradGradGrad

                          Input orientation:                          
 ---------------------------------------------------------------------
 Center     Atomic      Atomic             Coordinates (Angstroms)
 Number     Number       Type             X           Y           Z
 ---------------------------------------------------------------------
      1         14           0       -0.000000   -0.000000    1.175689
      2         14           0       -0.000000   -0.000000   -1.175689
      3          1           0       -0.000000    1.389622    1.691690
      4          1           0       -1.203448   -0.694811    1.691690
      5          1           0        1.203448   -0.694811    1.691690
      6          1           0        0.000000   -1.389622   -1.691690
      7          1           0       -1.203448    0.694811   -1.691690
      8          1           0        1.203448    0.694811   -1.691690
 ---------------------------------------------------------------------
                    Distance matrix (angstroms):
                    1          2          3          4          5
     1  Si   0.000000
     2  Si   2.351377   0.000000
     3  H    1.482332   3.186363   0.000000
     4  H    1.482332   3.186363   2.406896   0.000000
     5  H    1.482332   3.186363   2.406896   2.406896   0.000000
     6  H    3.186363   1.482332   4.378523   3.657638   3.657638
     7  H    3.186363   1.482332   3.657638   3.657638   4.378523
     8  H    3.186363   1.482332   3.657638   4.378523   3.657638
                    6          7          8
     6  H    0.000000
     7  H    2.406896   0.000000
     8  H    2.406896   2.406896   0.000000
 Stoichiometry    H6Si2
 Framework group  D3D[C3(Si.Si),3SGD(H2)]
 Deg. of freedom     3
 Full point group                 D3D     NOp  12
 Largest Abelian subgroup         C2H     NOp   4
 Largest concise Abelian subgroup C2H     NOp   4
                         Standard orientation:                         
 ---------------------------------------------------------------------
 Center     Atomic      Atomic             Coordinates (Angstroms)
 Number     Number       Type             X           Y           Z
 ---------------------------------------------------------------------
      1         14           0        0.000000    0.000000    1.175689
      2         14           0       -0.000000   -0.000000   -1.175689
      3          1           0        0.000000    1.389622    1.691690
      4          1           0       -1.203448   -0.694811    1.691690
      5          1           0        1.203448   -0.694811    1.691690
      6          1           0       -0.000000   -1.389622   -1.691690
      7          1           0       -1.203448    0.694811   -1.691690
      8          1           0        1.203448    0.694811   -1.691690
 ---------------------------------------------------------------------
 Rotational constants (GHZ):          43.2800043           5.0293673           5.0293673

 **********************************************************************

            Population analysis using the SCF Density.

 **********************************************************************

 Orbital symmetries:
       Occupied  (A1G) (A2U) (A1G) (A2U) (A1G) (EU) (EU) (EG) (EG)
                 (A2U) (A1G) (A2U) (EU) (EU) (EG) (EG) (A1G)
       Virtual   (A2U) (EU) (EU) (A1G) (EG) (EG) (A2U) (A1G) (EU)
                 (EU) (EG) (EG) (A2U) (A1G) (EU) (EU) (EG) (EG)
                 (A2U) (EU) (EU) (A1G) (A2U) (EG) (EG) (A1G) (EG)
                 (EG) (EU) (EU) (A1U) (A2G) (A2U) (EU) (EU) (EG)
                 (EG) (A2U) (EU) (EU) (A1G) (EG) (EG) (EU) (EU)
                 (A1G) (A1G) (EG) (EG) (A2U) (EG) (EG) (EU) (EU)
                 (A2U) (A1G) (EU) (EU) (EG) (EG) (EU) (EU) (A2U)
                 (A1G) (A1U) (A2G) (A2U) (EG) (EG) (EG) (EG) (EU)
                 (EU) (A1G) (A2U) (EU) (EU) (A1G) (EG) (EG) (EU)
                 (EU) (EG) (EG) (A2U) (A1U) (A2G) (EU) (EU) (EG)
                 (EG) (EG) (EG) (EU) (EU) (A1G) (A2U) (EU) (EU)
                 (A1G) (EG) (EG) (EU) (EU) (EG) (EG) (A1U) (A2G)
                 (A2U) (EU) (EU) (A1G) (EG) (EG) (A2U) (A1U) (A2G)
                 (EG) (EG) (EU) (EU) (A1G) (A2U) (EU) (EU) (EG)
                 (EG) (A2U) (A1G) (EU) (EU) (EG) (EG) (A2U) (A1G)
 The electronic state is 1-A1G.
 Alpha  occ. eigenvalues --  -66.08353 -66.08353  -5.27016  -5.27007  -3.62762
 Alpha  occ. eigenvalues --   -3.62723  -3.62723  -3.62718  -3.62718  -3.62703
 Alpha  occ. eigenvalues --   -0.57182  -0.51054  -0.36854  -0.36854  -0.34535
 Alpha  occ. eigenvalues --   -0.34535  -0.30106
 Alpha virt. eigenvalues --    0.00451   0.00455   0.00455   0.00734   0.03625
 Alpha virt. eigenvalues --    0.03625   0.05904   0.08505   0.10507   0.10507
 Alpha virt. eigenvalues --    0.13221   0.13221   0.18654   0.24023   0.24566
 Alpha virt. eigenvalues --    0.24566   0.27774   0.27774   0.30016   0.34221
 Alpha virt. eigenvalues --    0.34221   0.40562   0.47113   0.48254   0.48254
 Alpha virt. eigenvalues --    0.49194   0.65613   0.65613   0.66837   0.66837
 Alpha virt. eigenvalues --    0.73757   0.73886   0.78103   0.82126   0.82126
 Alpha virt. eigenvalues --    0.86194   0.86194   0.97419   1.01180   1.01180
 Alpha virt. eigenvalues --    1.03277   1.08905   1.08905   1.09802   1.09802
 Alpha virt. eigenvalues --    1.19183   1.21874   1.23535   1.23535   1.28007
 Alpha virt. eigenvalues --    1.34771   1.34771   1.39436   1.39436   1.41479
 Alpha virt. eigenvalues --    1.60090   1.63860   1.63860   1.69516   1.69516
 Alpha virt. eigenvalues --    1.71254   1.71254   1.78716   1.79262   1.85785
 Alpha virt. eigenvalues --    1.88494   1.88508   1.90752   1.90752   2.01935
 Alpha virt. eigenvalues --    2.01935   2.02161   2.02161   2.17548   2.24178
 Alpha virt. eigenvalues --    3.08562   3.08562   3.12145   3.19088   3.19088
 Alpha virt. eigenvalues --    3.36324   3.36324   3.43523   3.43523   3.49530
 Alpha virt. eigenvalues --    3.75951   3.75956   3.77379   3.77379   3.80110
 Alpha virt. eigenvalues --    3.80110   3.85914   3.85914   3.89673   3.89673
 Alpha virt. eigenvalues --    3.92315   3.96627   4.02608   4.02608   4.02993
 Alpha virt. eigenvalues --    4.08995   4.08995   4.13064   4.13064   4.16151
 Alpha virt. eigenvalues --    4.16151   4.20135   4.20468   4.26024   4.34796
 Alpha virt. eigenvalues --    4.34796   4.36112   4.39206   4.39206   4.45156
 Alpha virt. eigenvalues --    4.49502   4.51490   4.57929   4.57929   4.58957
 Alpha virt. eigenvalues --    4.58957   4.59776   4.68164   4.79095   4.79095
 Alpha virt. eigenvalues --    4.79721   4.79721   5.02287   5.03840   5.06374
 Alpha virt. eigenvalues --    5.06374   5.10610   5.10610  14.58657  14.76880
          Condensed to atoms (all electrons):
               1          2          3          4          5          6
     1  Si  12.169602   0.415737   0.371433   0.371433   0.371433  -0.026640
     2  Si   0.415737  12.169602  -0.026640  -0.026640  -0.026640   0.371433
     3  H    0.371433  -0.026640   0.833673  -0.026531  -0.026531   0.002437
     4  H    0.371433  -0.026640  -0.026531   0.833673  -0.026531  -0.000541
     5  H    0.371433  -0.026640  -0.026531  -0.026531   0.833673  -0.000541
     6  H   -0.026640   0.371433   0.002437  -0.000541  -0.000541   0.833673
     7  H   -0.026640   0.371433  -0.000541  -0.000541   0.002437  -0.026531
     8  H   -0.026640   0.371433  -0.000541   0.002437  -0.000541  -0.026531
               7          8
     1  Si  -0.026640  -0.026640
     2  Si   0.371433   0.371433
     3  H   -0.000541  -0.000541
     4  H   -0.000541   0.002437
     5  H    0.002437  -0.000541
     6  H   -0.026531  -0.026531
     7  H    0.833673  -0.026531
     8  H   -0.026531   0.833673
 Mulliken charges:
               1
     1  Si   0.380280
     2  Si   0.380280
     3  H   -0.126760
     4  H   -0.126760
     5  H   -0.126760
     6  H   -0.126760
     7  H   -0.126760
     8  H   -0.126760
 Sum of Mulliken charges =  -0.00000
 Mulliken charges with hydrogens summed into heavy atoms:
               1
     1  Si  -0.000000
     2  Si  -0.000000
 Electronic spatial extent (au):  <R**2>=            312.0340
 Charge=              0.0000 electrons
 Dipole moment (field-independent basis, Debye):
    X=              0.0000    Y=              0.0000    Z=              0.0000  Tot=              0.0000
 Quadrupole moment (field-independent basis, Debye-Ang):
   XX=            -31.5274   YY=            -31.5274   ZZ=            -32.6174
   XY=              0.0000   XZ=              0.0000   YZ=              0.0000
 Traceless Quadrupole moment (field-independent basis, Debye-Ang):
   XX=              0.3633   YY=              0.3633   ZZ=             -0.7267
   XY=              0.0000   XZ=              0.0000   YZ=              0.0000
 Octapole moment (field-independent basis, Debye-Ang**2):
  XXX=              0.0000  YYY=              0.0000  ZZZ=              0.0000  XYY=              0.0000
  XXY=              0.0000  XXZ=             -0.0000  XZZ=              0.0000  YZZ=              0.0000
  YYZ=              0.0000  XYZ=             -0.0000
 Hexadecapole moment (field-independent basis, Debye-Ang**3):
 XXXX=            -85.7301 YYYY=            -85.7301 ZZZZ=           -361.8037 XXXY=              0.0000
 XXXZ=              0.0000 YYYX=              0.0000 YYYZ=             -2.3738 ZZZX=              0.0000
 ZZZY=              0.0000 XXYY=            -28.5767 XXZZ=            -79.2472 YYZZ=            -79.2472
 XXYZ=              2.3738 YYXZ=              0.0000 ZZXY=              0.0000
 N-N= 9.059705667095D+01 E-N=-1.568685049639D+03  KE= 5.820855857420D+02
 Symmetry AG   KE= 2.660062511017D+02
 Symmetry BG   KE= 2.629275423888D+01
 Symmetry AU   KE= 2.622780341321D+01
 Symmetry BU   KE= 2.635587769882D+02
 1\1\GINC-GAMBA\FOpt\RB3LYP\Gen\H6Si2\IRIKURA\17-Sep-2023\0\\# b3lyp/ge
 n opt freq CPHF(Grid=OneStep)\\disilane, B3LYP/pcseg-2\\0,1\Si,0.,0.,1
 .1756885867\Si,0.,0.,-1.1756885867\H,-0.0000000003,1.3896222375,1.6916
 902261\H,-1.2034481591,-0.694811119,1.6916902261\H,1.2034481595,-0.694
 8111185,1.6916902261\H,0.0000000003,-1.3896222375,-1.6916902261\H,-1.2
 034481595,0.6948111185,-1.6916902261\H,1.2034481591,0.694811119,-1.691
 6902261\\Version=ES64L-G16RevB.01\State=1-A1G\HF=-582.6576147\RMSD=8.1
 05e-10\RMSF=1.188e-04\Dipole=0.,0.,0.\Quadrupole=0.2701255,0.2701255,-
 0.5402509,0.,0.,0.\PG=D03D [C3(Si1.Si1),3SGD(H2)]\\@


 NOT WHAT WE DID SHALL BE THE TEST
 WHEN ACT AND WILL ARE DONE,
 BUT WHAT OUR LORD INFERS WE WOULD-
 HAD WE DIVINER BEEN.
           EMILY DICKINSON  POEMS NO. CLXXV
 Job cpu time:       0 days  0 hours  1 minutes 37.9 seconds.
 Elapsed time:       0 days  0 hours  0 minutes  8.5 seconds.
 File lengths (MBytes):  RWF=     16 Int=      0 D2E=      0 Chk=      3 Scr=      1
 Normal termination of Gaussian 16 at Sun Sep 17 00:33:53 2023.
 Link1:  Proceeding to internal job step number  2.
 ------------------------------------------------------------------
 #N Geom=AllCheck Guess=TCheck SCRF=Check GenChk RB3LYP/ChkBas Freq
 ------------------------------------------------------------------
 1/10=4,29=7,30=1,38=1,40=1/1,3;
 2/12=2,40=1/2;
 3/5=7,6=2,11=2,14=-4,25=1,30=1,67=1,70=2,71=2,74=-5,82=7,116=1,140=1/1,2,3;
 4/5=101/1;
 5/5=2,38=6,98=1/2;
 8/6=4,10=90,11=11/1;
 11/6=1,8=1,9=11,15=111,16=1/1,2,10;
 10/6=1,60=-420/2;
 6/7=2,8=2,9=2,10=2,28=1/1;
 7/8=1,10=1,25=1/1,2,3,16;
 1/10=4,30=1/3;
 99//99;
 Structure from the checkpoint file:  "/wrk/irikura/Gau-325151.chk"
 -----------------------
 disilane, B3LYP/pcseg-2
 -----------------------
 Charge =  0 Multiplicity = 1
 Redundant internal coordinates found in file.  (old form).
 Si,0,0.,0.,1.1756885867
 Si,0,0.,0.,-1.1756885867
 H,0,-0.0000000003,1.3896222375,1.6916902261
 H,0,-1.2034481591,-0.694811119,1.6916902261
 H,0,1.2034481595,-0.6948111185,1.6916902261
 H,0,0.0000000003,-1.3896222375,-1.6916902261
 H,0,-1.2034481595,0.6948111185,-1.6916902261
 H,0,1.2034481591,0.694811119,-1.6916902261
 Recover connectivity data from disk.

 GradGradGradGradGradGradGradGradGradGradGradGradGradGradGradGradGradGrad
 Berny optimization.
 Initialization pass.
                           ----------------------------
                           !    Initial Parameters    !
                           ! (Angstroms and Degrees)  !
 --------------------------                            --------------------------
 ! Name  Definition              Value          Derivative Info.                !
 --------------------------------------------------------------------------------
 ! R1    R(1,2)                  2.3514         calculate D2E/DX2 analytically  !
 ! R2    R(1,3)                  1.4823         calculate D2E/DX2 analytically  !
 ! R3    R(1,4)                  1.4823         calculate D2E/DX2 analytically  !
 ! R4    R(1,5)                  1.4823         calculate D2E/DX2 analytically  !
 ! R5    R(2,6)                  1.4823         calculate D2E/DX2 analytically  !
 ! R6    R(2,7)                  1.4823         calculate D2E/DX2 analytically  !
 ! R7    R(2,8)                  1.4823         calculate D2E/DX2 analytically  !
 ! A1    A(2,1,3)              110.3712         calculate D2E/DX2 analytically  !
 ! A2    A(2,1,4)              110.3712         calculate D2E/DX2 analytically  !
 ! A3    A(2,1,5)              110.3712         calculate D2E/DX2 analytically  !
 ! A4    A(3,1,4)              108.5564         calculate D2E/DX2 analytically  !
 ! A5    A(3,1,5)              108.5564         calculate D2E/DX2 analytically  !
 ! A6    A(4,1,5)              108.5564         calculate D2E/DX2 analytically  !
 ! A7    A(1,2,6)              110.3712         calculate D2E/DX2 analytically  !
 ! A8    A(1,2,7)              110.3712         calculate D2E/DX2 analytically  !
 ! A9    A(1,2,8)              110.3712         calculate D2E/DX2 analytically  !
 ! A10   A(6,2,7)              108.5564         calculate D2E/DX2 analytically  !
 ! A11   A(6,2,8)              108.5564         calculate D2E/DX2 analytically  !
 ! A12   A(7,2,8)              108.5564         calculate D2E/DX2 analytically  !
 ! D1    D(3,1,2,6)            180.0            calculate D2E/DX2 analytically  !
 ! D2    D(3,1,2,7)            -60.0            calculate D2E/DX2 analytically  !
 ! D3    D(3,1,2,8)             60.0            calculate D2E/DX2 analytically  !
 ! D4    D(4,1,2,6)            -60.0            calculate D2E/DX2 analytically  !
 ! D5    D(4,1,2,7)             60.0            calculate D2E/DX2 analytically  !
 ! D6    D(4,1,2,8)            180.0            calculate D2E/DX2 analytically  !
 ! D7    D(5,1,2,6)             60.0            calculate D2E/DX2 analytically  !
 ! D8    D(5,1,2,7)            180.0            calculate D2E/DX2 analytically  !
 ! D9    D(5,1,2,8)            -60.0            calculate D2E/DX2 analytically  !
 --------------------------------------------------------------------------------
 Trust Radius=3.00D-01 FncErr=1.00D-07 GrdErr=1.00D-07 EigMax=2.50D+02 EigMin=1.00D-04
 Number of steps in this run=      2 maximum allowed number of steps=      2.
 GradGradGradGradGradGradGradGradGradGradGradGradGradGradGradGradGradGrad

                          Input orientation:                          
 ---------------------------------------------------------------------
 Center     Atomic      Atomic             Coordinates (Angstroms)
 Number     Number       Type             X           Y           Z
 ---------------------------------------------------------------------
      1         14           0       -0.000000   -0.000000    1.175689
      2         14           0       -0.000000   -0.000000   -1.175689
      3          1           0       -0.000000    1.389622    1.691690
      4          1           0       -1.203448   -0.694811    1.691690
      5          1           0        1.203448   -0.694811    1.691690
      6          1           0        0.000000   -1.389622   -1.691690
      7          1           0       -1.203448    0.694811   -1.691690
      8          1           0        1.203448    0.694811   -1.691690
 ---------------------------------------------------------------------
                    Distance matrix (angstroms):
                    1          2          3          4          5
     1  Si   0.000000
     2  Si   2.351377   0.000000
     3  H    1.482332   3.186363   0.000000
     4  H    1.482332   3.186363   2.406896   0.000000
     5  H    1.482332   3.186363   2.406896   2.406896   0.000000
     6  H    3.186363   1.482332   4.378523   3.657638   3.657638
     7  H    3.186363   1.482332   3.657638   3.657638   4.378523
     8  H    3.186363   1.482332   3.657638   4.378523   3.657638
                    6          7          8
     6  H    0.000000
     7  H    2.406896   0.000000
     8  H    2.406896   2.406896   0.000000
 Stoichiometry    H6Si2
 Framework group  D3D[C3(Si.Si),3SGD(H2)]
 Deg. of freedom     3
 Full point group                 D3D     NOp  12
 Largest Abelian subgroup         C2H     NOp   4
 Largest concise Abelian subgroup C2H     NOp   4
                         Standard orientation:                         
 ---------------------------------------------------------------------
 Center     Atomic      Atomic             Coordinates (Angstroms)
 Number     Number       Type             X           Y           Z
 ---------------------------------------------------------------------
      1         14           0        0.000000    0.000000    1.175689
      2         14           0       -0.000000   -0.000000   -1.175689
      3          1           0        0.000000    1.389622    1.691690
      4          1           0       -1.203448   -0.694811    1.691690
      5          1           0        1.203448   -0.694811    1.691690
      6          1           0       -0.000000   -1.389622   -1.691690
      7          1           0       -1.203448    0.694811   -1.691690
      8          1           0        1.203448    0.694811   -1.691690
 ---------------------------------------------------------------------
 Rotational constants (GHZ):          43.2800043           5.0293673           5.0293673
 Basis read from chk: "/wrk/irikura/Gau-325151.chk" (5D, 7F)
 There are    53 symmetry adapted cartesian basis functions of AG  symmetry.
 There are    31 symmetry adapted cartesian basis functions of BG  symmetry.
 There are    31 symmetry adapted cartesian basis functions of AU  symmetry.
 There are    53 symmetry adapted cartesian basis functions of BU  symmetry.
 There are    47 symmetry adapted basis functions of AG  symmetry.
 There are    29 symmetry adapted basis functions of BG  symmetry.
 There are    29 symmetry adapted basis functions of AU  symmetry.
 There are    47 symmetry adapted basis functions of BU  symmetry.
   152 basis functions,   248 primitive gaussians,   168 cartesian basis functions
    17 alpha electrons       17 beta electrons
       nuclear repulsion energy        90.5970566710 Hartrees.
 NAtoms=    8 NActive=    8 NUniq=    2 SFac= 4.00D+00 NAtFMM=   60 NAOKFM=F Big=F
 Integral buffers will be    131072 words long.
 Raffenetti 2 integral format.
 Two-electron integral symmetry is turned on.
 One-electron integrals computed using PRISM.
 NBasis=   152 RedAO= T EigKep=  6.67D-03  NBF=    47    29    29    47
 NBsUse=   152 1.00D-06 EigRej= -1.00D+00 NBFU=    47    29    29    47
 Initial guess from the checkpoint file:  "/wrk/irikura/Gau-325151.chk"
 B after Tr=    -0.000000   -0.000000   -0.000000
         Rot=    1.000000    0.000000    0.000000   -0.000000 Ang=   0.00 deg.
 Initial guess orbital symmetries:
       Occupied  (A1G) (A2U) (A1G) (A2U) (A1G) (EU) (EU) (EG) (EG)
                 (A2U) (A1G) (A2U) (EU) (EU) (EG) (EG) (A1G)
       Virtual   (A2U) (EU) (EU) (A1G) (EG) (EG) (A2U) (A1G) (EU)
                 (EU) (EG) (EG) (A2U) (A1G) (EU) (EU) (EG) (EG)
                 (A2U) (EU) (EU) (A1G) (A2U) (EG) (EG) (A1G) (EG)
                 (EG) (EU) (EU) (A1U) (A2G) (A2U) (EU) (EU) (EG)
                 (EG) (A2U) (EU) (EU) (A1G) (EG) (EG) (EU) (EU)
                 (A1G) (A1G) (EG) (EG) (A2U) (EG) (EG) (EU) (EU)
                 (A2U) (A1G) (EU) (EU) (EG) (EG) (EU) (EU) (A2U)
                 (A1G) (A1U) (A2G) (A2U) (EG) (EG) (EG) (EG) (EU)
                 (EU) (A1G) (A2U) (EU) (EU) (A1G) (EG) (EG) (EU)
                 (EU) (EG) (EG) (A2U) (A1U) (A2G) (EU) (EU) (EG)
                 (EG) (EG) (EG) (EU) (EU) (A1G) (A2U) (EU) (EU)
                 (A1G) (EG) (EG) (EU) (EU) (EG) (EG) (A1U) (A2G)
                 (A2U) (EU) (EU) (A1G) (EG) (EG) (A2U) (A1U) (A2G)
                 (EG) (EG) (EU) (EU) (A1G) (A2U) (EU) (EU) (EG)
                 (EG) (A2U) (A1G) (EU) (EU) (EG) (EG) (A2U) (A1G)
 Keep R1 ints in memory in symmetry-blocked form, NReq=84613431.
 Requested convergence on RMS density matrix=1.00D-08 within 128 cycles.
 Requested convergence on MAX density matrix=1.00D-06.
 Requested convergence on             energy=1.00D-06.
 No special actions if energy rises.
 An orbital has undefined symmetry, so N**3 symmetry is turned off.
 SCF Done:  E(RB3LYP) =  -582.657614722     A.U. after    1 cycles
            NFock=  1  Conv=0.13D-09     -V/T= 2.0010
 DoSCS=F DFT=T ScalE2(SS,OS)=  1.000000  1.000000
 Range of M.O.s used for correlation:     1   152
 NBasis=   152 NAE=    17 NBE=    17 NFC=     0 NFV=     0
 NROrb=    152 NOA=    17 NOB=    17 NVA=   135 NVB=   135
 Symmetrizing basis deriv contribution to polar:
 IMax=3 JMax=2 DiffMx= 0.00D+00
 G2DrvN: will do     9 centers at a time, making    1 passes.
 Calling FoFCou, ICntrl=  3107 FMM=F I1Cent=   0 AccDes= 0.00D+00.
 End of G2Drv F.D. properties file   721 does not exist.
 End of G2Drv F.D. properties file   722 does not exist.
 End of G2Drv F.D. properties file   788 does not exist.
          IDoAtm=11111111
          Differentiating once with respect to electric field.
                with respect to dipole field.
          Differentiating once with respect to nuclear coordinates.
 Keep R1 ints in memory in symmetry-blocked form, NReq=84618412.
          There are     9 degrees of freedom in the 1st order CPHF.  IDoFFX=4 NUNeed=     9.
      9 vectors produced by pass  0 Test12= 2.55D-14 1.11D-08 XBig12= 6.19D+01 6.10D+00.
 AX will form     9 AO Fock derivatives at one time.
      9 vectors produced by pass  1 Test12= 2.55D-14 1.11D-08 XBig12= 3.65D+00 6.44D-01.
      9 vectors produced by pass  2 Test12= 2.55D-14 1.11D-08 XBig12= 2.76D-01 1.86D-01.
      9 vectors produced by pass  3 Test12= 2.55D-14 1.11D-08 XBig12= 3.48D-03 1.21D-02.
      9 vectors produced by pass  4 Test12= 2.55D-14 1.11D-08 XBig12= 4.34D-05 2.10D-03.
      9 vectors produced by pass  5 Test12= 2.55D-14 1.11D-08 XBig12= 2.78D-07 1.04D-04.
      7 vectors produced by pass  6 Test12= 2.55D-14 1.11D-08 XBig12= 2.20D-09 9.44D-06.
      3 vectors produced by pass  7 Test12= 2.55D-14 1.11D-08 XBig12= 9.98D-12 1.03D-06.
      1 vectors produced by pass  8 Test12= 2.55D-14 1.11D-08 XBig12= 1.60D-14 2.21D-08.
 InvSVY:  IOpt=1 It=  1 EMax= 8.88D-16
 Solved reduced A of dimension    65 with     9 vectors.
 Isotropic polarizability for W=    0.000000       58.74 Bohr**3.
 End of Minotr F.D. properties file   721 does not exist.
 End of Minotr F.D. properties file   722 does not exist.
 End of Minotr F.D. properties file   788 does not exist.

 **********************************************************************

            Population analysis using the SCF Density.

 **********************************************************************

 Orbital symmetries:
       Occupied  (A1G) (A2U) (A1G) (A2U) (A1G) (EU) (EU) (EG) (EG)
                 (A2U) (A1G) (A2U) (EU) (EU) (EG) (EG) (A1G)
       Virtual   (A2U) (EU) (EU) (A1G) (EG) (EG) (A2U) (A1G) (EU)
                 (EU) (EG) (EG) (A2U) (A1G) (EU) (EU) (EG) (EG)
                 (A2U) (EU) (EU) (A1G) (A2U) (EG) (EG) (A1G) (EG)
                 (EG) (EU) (EU) (A1U) (A2G) (A2U) (EU) (EU) (EG)
                 (EG) (A2U) (EU) (EU) (A1G) (EG) (EG) (EU) (EU)
[...]
 Frc consts  --      2.9349                 3.0485                 3.0485
 IR Inten    --    120.5920                 0.0000                 0.0000
  Atom  AN      X      Y      Z        X      Y      Z        X      Y      Z
     1  14     0.00   0.00  -0.01    -0.03  -0.00   0.00     0.00  -0.03   0.00
     2  14    -0.00   0.00  -0.01     0.03   0.00  -0.00    -0.00   0.03  -0.00
     3   1     0.00   0.39   0.13    -0.01   0.00   0.00     0.00   0.54   0.20
     4   1    -0.34  -0.19   0.13     0.40   0.24  -0.18     0.24   0.13  -0.10
     5   1     0.34  -0.19   0.13     0.40  -0.24   0.18    -0.24   0.13  -0.10
     6   1    -0.00   0.39   0.13     0.01  -0.00  -0.00    -0.00  -0.54  -0.20
     7   1     0.34  -0.19   0.13    -0.40   0.24  -0.18     0.24  -0.13   0.10
     8   1    -0.34  -0.19   0.13    -0.40  -0.24   0.18    -0.24  -0.13   0.10
                     16                     17                     18
                     A1G                    EU                     EU
 Frequencies --   2220.6184              2229.1213              2229.1214
 Red. masses --      1.0195                 1.0524                 1.0524
 Frc consts  --      2.9621                 3.0810                 3.0810
 IR Inten    --      0.0000               204.6844               204.6855
  Atom  AN      X      Y      Z        X      Y      Z        X      Y      Z
     1  14    -0.00  -0.00  -0.01    -0.00  -0.03  -0.00    -0.03   0.00  -0.00
     2  14     0.00   0.00   0.01    -0.00  -0.03  -0.00    -0.03   0.00   0.00
     3   1    -0.00   0.38   0.14    -0.00   0.54   0.20    -0.01  -0.00  -0.00
     4   1    -0.33  -0.19   0.14     0.24   0.13  -0.10     0.40   0.24  -0.18
     5   1     0.33  -0.19   0.14    -0.24   0.13  -0.10     0.40  -0.24   0.18
     6   1     0.00  -0.38  -0.14    -0.00   0.54   0.20    -0.01  -0.00  -0.00
     7   1    -0.33   0.19  -0.14    -0.24   0.13  -0.10     0.40  -0.24   0.18
     8   1     0.33   0.19  -0.14     0.24   0.13  -0.10     0.40   0.24  -0.18

 -------------------
 - Thermochemistry -
 -------------------
 Temperature   298.150 Kelvin.  Pressure   1.00000 Atm.
 Atom     1 has atomic number 14 and mass  27.97693
 Atom     2 has atomic number 14 and mass  27.97693
 Atom     3 has atomic number  1 and mass   1.00783
 Atom     4 has atomic number  1 and mass   1.00783
 Atom     5 has atomic number  1 and mass   1.00783
 Atom     6 has atomic number  1 and mass   1.00783
 Atom     7 has atomic number  1 and mass   1.00783
 Atom     8 has atomic number  1 and mass   1.00783
 Molecular mass:    62.00081 amu.
 Principal axes and moments of inertia in atomic units:
                           1         2         3
     Eigenvalues --    41.69919 358.84060 358.84060
           X           -0.00000  -0.34731   0.93775
           Y            0.00000   0.93775   0.34731
           Z            1.00000  -0.00000   0.00000
 This molecule is a prolate symmetric top.
 Rotational symmetry number  6.
 Rotational temperatures (Kelvin)      2.07711     0.24137     0.24137
 Rotational constants (GHZ):          43.28000     5.02937     5.02937
 Zero-point vibrational energy     128463.0 (Joules/Mol)
                                   30.70340 (Kcal/Mol)
 Warning -- explicit consideration of   4 degrees of freedom as
           vibrations may cause significant error
 Vibrational temperatures:    183.04   537.20   537.20   606.12   910.38
          (Kelvin)            910.38  1228.51  1333.74  1358.90  1358.90
                             1379.16  1379.16  3182.05  3193.48  3193.48
                             3194.97  3207.21  3207.21
 
 Zero-point correction=                           0.048929 (Hartree/Particle)
 Thermal correction to Energy=                    0.053984
 Thermal correction to Enthalpy=                  0.054929
 Thermal correction to Gibbs Free Energy=         0.023815
 Sum of electronic and zero-point Energies=           -582.608686
 Sum of electronic and thermal Energies=              -582.603630
 Sum of electronic and thermal Enthalpies=            -582.602686
 Sum of electronic and thermal Free Energies=         -582.633800
 
                     E (Thermal)             CV                S
                      KCal/Mol        Cal/Mol-Kelvin    Cal/Mol-Kelvin
 Total                   33.876             17.086             65.484
 Electronic               0.000              0.000              0.000
 Translational            0.889              2.981             38.293
 Rotational               0.889              2.981             19.639
 Vibrational             32.098             11.124              7.551
 Vibration     1          0.611              1.926              2.988
 Vibration     2          0.745              1.527              1.066
 Vibration     3          0.745              1.527              1.066
 Vibration     4          0.784              1.424              0.888
                       Q            Log10(Q)             Ln(Q)
 Total Bot       0.111121D-10        -10.954204        -25.222986
 Total V=0       0.356078D+12         11.551545         26.598415
 Vib (Bot)       0.132461D-21        -21.877913        -50.375757
 Vib (Bot)    1  0.160356D+01          0.205085          0.472226
 Vib (Bot)    2  0.486481D+00         -0.312934         -0.720557
 Vib (Bot)    3  0.486481D+00         -0.312934         -0.720557
 Vib (Bot)    4  0.416396D+00         -0.380494         -0.876120
 Vib (V=0)       0.424459D+01          0.627835          1.445644
 Vib (V=0)    1  0.217970D+01          0.338397          0.779189
 Vib (V=0)    2  0.119761D+01          0.078317          0.180331
 Vib (V=0)    3  0.119761D+01          0.078317          0.180331
 Vib (V=0)    4  0.115068D+01          0.060955          0.140354
 Electronic      0.100000D+01          0.000000          0.000000
 Translational   0.191889D+08          7.283050         16.769842
 Rotational      0.437179D+04          3.640660          8.382929
 ***** Axes restored to original set *****
 -------------------------------------------------------------------
 Center     Atomic                   Forces (Hartrees/Bohr)
 Number     Number              X              Y              Z
 -------------------------------------------------------------------
      1       14           0.000000000    0.000000000   -0.000322158
      2       14          -0.000000000   -0.000000000    0.000322158
      3        1          -0.000000000    0.000141498    0.000042335
      4        1          -0.000122541   -0.000070749    0.000042335
      5        1           0.000122541   -0.000070749    0.000042335
      6        1           0.000000000   -0.000141498   -0.000042335
      7        1          -0.000122541    0.000070749   -0.000042335
      8        1           0.000122541    0.000070749   -0.000042335
 -------------------------------------------------------------------
 Cartesian Forces:  Max     0.000322158 RMS     0.000118753
 FormGI is forming the generalized inverse of G from B-inverse, IUseBI=4.

 GradGradGradGradGradGradGradGradGradGradGradGradGradGradGradGradGradGrad
 Berny optimization.
 Internal  Forces:  Max     0.000195152 RMS     0.000078035
 Search for a local minimum.
 Step number   1 out of a maximum of    2
 All quantities printed in internal units (Hartrees-Bohrs-Radians)
 Second derivative matrix not updated -- analytic derivatives used.
 ITU=  0
     Eigenvalues ---    0.00077   0.02654   0.02654   0.03718   0.03718
     Eigenvalues ---    0.06322   0.06322   0.09582   0.09699   0.10612
     Eigenvalues ---    0.10612   0.12184   0.18067   0.18067   0.18133
     Eigenvalues ---    0.18133   0.18588   0.18639
 Angle between quadratic step and forces=  16.28 degrees.
 Linear search not attempted -- first point.
 Iteration  1 RMS(Cart)=  0.00057153 RMS(Int)=  0.00000001
 Iteration  2 RMS(Cart)=  0.00000001 RMS(Int)=  0.00000000
 ClnCor:  largest displacement from symmetrization is 8.75D-09 for atom     6.
 Variable       Old X    -DE/DX   Delta X   Delta X   Delta X     New X
                                 (Linear)    (Quad)   (Total)
    R1        4.44346  -0.00020   0.00000  -0.00192  -0.00192   4.44153
    R2        2.80120   0.00015   0.00000   0.00081   0.00081   2.80201
    R3        2.80120   0.00015   0.00000   0.00081   0.00081   2.80201
    R4        2.80120   0.00015   0.00000   0.00081   0.00081   2.80201
    R5        2.80120   0.00015   0.00000   0.00081   0.00081   2.80201
    R6        2.80120   0.00015   0.00000   0.00081   0.00081   2.80201
    R7        2.80120   0.00015   0.00000   0.00081   0.00081   2.80201
    A1        1.92634  -0.00001   0.00000  -0.00003  -0.00003   1.92631
    A2        1.92634  -0.00001   0.00000  -0.00003  -0.00003   1.92631
    A3        1.92634  -0.00001   0.00000  -0.00003  -0.00003   1.92631
    A4        1.89467   0.00001   0.00000   0.00004   0.00004   1.89470
    A5        1.89467   0.00001   0.00000   0.00004   0.00004   1.89470
    A6        1.89467   0.00001   0.00000   0.00004   0.00004   1.89470
    A7        1.92634  -0.00001   0.00000  -0.00003  -0.00003   1.92631
    A8        1.92634  -0.00001   0.00000  -0.00003  -0.00003   1.92631
    A9        1.92634  -0.00001   0.00000  -0.00003  -0.00003   1.92631
   A10        1.89467   0.00001   0.00000   0.00004   0.00004   1.89470
   A11        1.89467   0.00001   0.00000   0.00004   0.00004   1.89470
   A12        1.89467   0.00001   0.00000   0.00004   0.00004   1.89470
    D1        3.14159  -0.00000   0.00000   0.00000   0.00000   3.14159
    D2       -1.04720   0.00000   0.00000   0.00000   0.00000  -1.04720
    D3        1.04720  -0.00000   0.00000  -0.00000   0.00000   1.04720
    D4       -1.04720  -0.00000   0.00000   0.00000  -0.00000  -1.04720
    D5        1.04720   0.00000   0.00000   0.00000  -0.00000   1.04720
    D6        3.14159  -0.00000   0.00000   0.00000  -0.00000   3.14159
    D7        1.04720   0.00000   0.00000  -0.00000  -0.00000   1.04720
    D8       -3.14159   0.00000   0.00000   0.00000  -0.00000   3.14159
    D9       -1.04720  -0.00000   0.00000  -0.00000   0.00000  -1.04720
         Item               Value     Threshold  Converged?
 Maximum Force            0.000195     0.000450     YES
 RMS     Force            0.000078     0.000300     YES
 Maximum Displacement     0.000962     0.001800     YES
 RMS     Displacement     0.000572     0.001200     YES
 Predicted change in Energy=-5.468616D-07
 Optimization completed.
    -- Stationary point found.
                           ----------------------------
                           !   Optimized Parameters   !
                           ! (Angstroms and Degrees)  !
 --------------------------                            --------------------------
 ! Name  Definition              Value          Derivative Info.                !
 --------------------------------------------------------------------------------
 ! R1    R(1,2)                  2.3514         -DE/DX =   -0.0002              !
 ! R2    R(1,3)                  1.4823         -DE/DX =    0.0001              !
 ! R3    R(1,4)                  1.4823         -DE/DX =    0.0001              !
 ! R4    R(1,5)                  1.4823         -DE/DX =    0.0001              !
 ! R5    R(2,6)                  1.4823         -DE/DX =    0.0001              !
 ! R6    R(2,7)                  1.4823         -DE/DX =    0.0001              !
 ! R7    R(2,8)                  1.4823         -DE/DX =    0.0001              !
 ! A1    A(2,1,3)              110.3712         -DE/DX =    0.0                 !
 ! A2    A(2,1,4)              110.3712         -DE/DX =    0.0                 !
 ! A3    A(2,1,5)              110.3712         -DE/DX =    0.0                 !
 ! A4    A(3,1,4)              108.5564         -DE/DX =    0.0                 !
 ! A5    A(3,1,5)              108.5564         -DE/DX =    0.0                 !
 ! A6    A(4,1,5)              108.5564         -DE/DX =    0.0                 !
 ! A7    A(1,2,6)              110.3712         -DE/DX =    0.0                 !
 ! A8    A(1,2,7)              110.3712         -DE/DX =    0.0                 !
 ! A9    A(1,2,8)              110.3712         -DE/DX =    0.0                 !
 ! A10   A(6,2,7)              108.5564         -DE/DX =    0.0                 !
 ! A11   A(6,2,8)              108.5564         -DE/DX =    0.0                 !
 ! A12   A(7,2,8)              108.5564         -DE/DX =    0.0                 !
 ! D1    D(3,1,2,6)            180.0            -DE/DX =    0.0                 !
 ! D2    D(3,1,2,7)            -60.0            -DE/DX =    0.0                 !
 ! D3    D(3,1,2,8)             60.0            -DE/DX =    0.0                 !
 ! D4    D(4,1,2,6)            -60.0            -DE/DX =    0.0                 !
 ! D5    D(4,1,2,7)             60.0            -DE/DX =    0.0                 !
 ! D6    D(4,1,2,8)            180.0            -DE/DX =    0.0                 !
 ! D7    D(5,1,2,6)             60.0            -DE/DX =    0.0                 !
 ! D8    D(5,1,2,7)            180.0            -DE/DX =    0.0                 !
 ! D9    D(5,1,2,8)            -60.0            -DE/DX =    0.0                 !
 --------------------------------------------------------------------------------
 GradGradGradGradGradGradGradGradGradGradGradGradGradGradGradGradGradGrad

 Dipole is zero, so no output in dipole orientation.

 ----------------------------------------------------------------------

 Electric dipole moment (input orientation):
 (Debye = 10**-18 statcoulomb cm , SI units = C m)
                  (au)            (Debye)         (10**-30 SI)
   Tot        0.000000D+00      0.000000D+00      0.000000D+00
   x          0.000000D+00      0.000000D+00      0.000000D+00
   y          0.000000D+00      0.000000D+00      0.000000D+00
   z          0.000000D+00      0.000000D+00      0.000000D+00

 Dipole polarizability, Alpha (input orientation).
 (esu units = cm**3 , SI units = C**2 m**2 J**-1)
 Alpha(0;0):
               (au)            (10**-24 esu)      (10**-40 SI)
   iso        0.587432D+02      0.870485D+01      0.968545D+01
   aniso      0.170836D+02      0.253153D+01      0.281670D+01
   xx         0.530486D+02      0.786099D+01      0.874653D+01
   yx         0.000000D+00      0.000000D+00      0.000000D+00
   yy         0.530488D+02      0.786102D+01      0.874656D+01
   zx         0.000000D+00      0.000000D+00      0.000000D+00
   zy        -0.498788D-04     -0.739128D-05     -0.822391D-05
   zz         0.701323D+02      0.103925D+02      0.115633D+02

 ----------------------------------------------------------------------
 1\1\GINC-GAMBA\Freq\RB3LYP\Gen\H6Si2\IRIKURA\17-Sep-2023\0\\#N Geom=Al
 lCheck Guess=TCheck SCRF=Check GenChk RB3LYP/ChkBas Freq\\disilane, B3
 LYP/pcseg-2\\0,1\Si,0.,0.,1.1756885867\Si,0.,0.,-1.1756885867\H,-0.000
 0000003,1.3896222375,1.6916902261\H,-1.2034481591,-0.694811119,1.69169
 02261\H,1.2034481595,-0.6948111185,1.6916902261\H,0.0000000003,-1.3896
 222375,-1.6916902261\H,-1.2034481595,0.6948111185,-1.6916902261\H,1.20
 34481591,0.694811119,-1.6916902261\\Version=ES64L-G16RevB.01\State=1-A
 1G\HF=-582.6576147\RMSD=1.347e-10\RMSF=1.188e-04\ZeroPoint=0.048929\Th
 ermal=0.0539845\Dipole=0.,0.,0.\DipoleDeriv=0.6516779,0.,0.,0.,0.65167
 81,-0.0000001,0.,0.000002,0.9579488,0.6516779,0.,0.,0.,0.6516781,-0.00
 00001,0.,0.000002,0.9579487,-0.189306,0.,0.,0.,-0.2451455,-0.0343841,0
 .,-0.065788,-0.3193161,-0.2311858,-0.024179,0.0297777,-0.0241798,-0.20
 32661,0.0171921,0.0569744,0.0328935,-0.3193162,-0.2311858,0.024179,-0.
 0297777,0.0241798,-0.2032661,0.0171921,-0.0569744,0.0328935,-0.3193162
 ,-0.189306,0.,0.,0.,-0.2451455,-0.0343841,0.,-0.065788,-0.3193161,-0.2
 311858,0.024179,-0.0297777,0.0241798,-0.2032661,0.0171921,-0.0569744,0
 .0328935,-0.3193162,-0.2311858,-0.024179,0.0297777,-0.0241798,-0.20326
 61,0.0171921,0.0569744,0.0328935,-0.3193162\Polar=53.0486073,0.,53.048
 7937,0.,-0.0000499,70.1322834\Quadrupole=0.2701255,0.2701255,-0.540250
 9,0.,0.,0.\PG=D03D [C3(Si1.Si1),3SGD(H2)]\NImag=0\\0.28664880,0.,0.286
 64875,0.,0.00000017,0.22063530,-0.02175040,0.,0.,0.28664880,0.,-0.0217
 5056,0.00000017,0.,0.28664875,0.,0.00000017,-0.09787488,0.,0.00000017,
 0.22063530,-0.02357210,0.,0.,0.00029449,0.,0.,0.01973197,0.,-0.1538217
 8,-0.04746753,0.,0.00050050,0.00019445,0.,0.16265747,0.,-0.05387464,-0
 .04144541,0.,-0.01080867,0.00052521,0.,0.05304504,0.03752063,-0.121259
 35,-0.05639973,0.04110808,0.00044897,0.00008923,-0.00016843,0.00145580
 ,-0.00074918,0.00006017,0.12692610,-0.05639975,-0.05613450,0.02373372,
 0.00008919,0.00034601,-0.00009727,-0.01038997,-0.00497539,0.00495637,0
 .06188856,0.05546335,0.04665678,0.02693728,-0.04144540,0.00936058,0.00
 540429,0.00052525,-0.00426226,-0.00253029,0.00329432,-0.04593835,-0.02
 652252,0.03752063,-0.12125935,0.05639973,-0.04110808,0.00044897,-0.000
 08923,0.00016843,0.00145580,0.00074918,-0.00006017,-0.00819099,0.00482
 039,-0.00432242,0.12692610,0.05639975,-0.05613450,0.02373372,-0.000089
 19,0.00034601,-0.00009727,0.01038997,-0.00497539,0.00495637,-0.0048203
 9,0.00467140,-0.00242608,-0.06188856,0.05546335,-0.04665678,0.02693728
 ,-0.04144540,-0.00936058,0.00540429,0.00052525,0.00426226,-0.00253029,
 0.00329432,0.00432242,-0.00242608,0.00329432,0.04593835,-0.02652252,0.
 03752063,0.00029449,0.,0.,-0.02357210,0.,0.,0.00043303,0.,0.,0.0001005
 1,0.00000263,-0.00044048,0.00010051,-0.00000263,0.00044048,0.01973197,
 0.,0.00050050,0.00019445,0.,-0.15382178,-0.04746753,0.,0.00033680,0.00
 040455,0.00006384,0.00013889,-0.00055799,-0.00006384,0.00013889,-0.000
 55799,0.,0.16265747,0.,-0.01080867,0.00052521,0.,-0.05387464,-0.041445
 41,0.,0.00040455,-0.00360538,0.00026299,0.00066046,0.00020816,-0.00026
 299,0.00066046,0.00020816,0.,0.05304504,0.03752063,0.00044897,-0.00008
 923,0.00016843,-0.12125935,0.05639973,-0.04110808,0.00010051,-0.000063
 84,-0.00026299,0.00015807,0.00003060,-0.00070348,0.00036086,0.00004167
 ,0.00035035,0.00145580,0.00074918,-0.00006017,0.12692610,-0.00008919,0
 .00034601,-0.00009727,0.05639975,-0.05613450,0.02373372,-0.00000263,0.
 00013889,0.00066046,-0.00003060,0.00008133,-0.00010247,0.00004167,0.00
 040897,-0.00020228,0.01038997,-0.00497539,0.00495637,-0.06188856,0.055
 46335,-0.00936058,0.00540429,0.00052525,-0.04665678,0.02693728,-0.0414
 4540,0.00044048,-0.00055799,0.00020816,0.00070348,-0.00010247,0.000208
 16,0.00035035,-0.00020228,-0.00360538,0.00426226,-0.00253029,0.0032943
 2,0.04593835,-0.02652252,0.03752063,0.00044897,0.00008923,-0.00016843,
 -0.12125935,-0.05639973,0.04110808,0.00010051,0.00006384,0.00026299,0.
 00036086,-0.00004167,-0.00035035,0.00015807,-0.00003060,0.00070348,0.0
 0145580,-0.00074918,0.00006017,-0.00819099,-0.00482039,0.00432242,0.12
 692610,0.00008919,0.00034601,-0.00009727,-0.05639975,-0.05613450,0.023
 73372,0.00000263,0.00013889,0.00066046,-0.00004167,0.00040897,-0.00020
 228,0.00003060,0.00008133,-0.00010247,-0.01038997,-0.00497539,0.004956
 37,0.00482039,0.00467140,-0.00242608,0.06188856,0.05546335,0.00936058,
 0.00540429,0.00052525,0.04665678,0.02693728,-0.04144540,-0.00044048,-0
 .00055799,0.00020816,-0.00035035,-0.00020228,-0.00360538,-0.00070348,-
 0.00010247,0.00020816,-0.00426226,-0.00253029,0.00329432,-0.00432242,-
 0.00242608,0.00329432,-0.04593835,-0.02652252,0.03752063\\0.,0.,0.0003
 2216,0.,0.,-0.00032216,0.,-0.00014150,-0.00004234,0.00012254,0.0000707
 5,-0.00004234,-0.00012254,0.00007075,-0.00004234,0.,0.00014150,0.00004
 234,0.00012254,-0.00007075,0.00004234,-0.00012254,-0.00007075,0.000042
 34\\\@


 The mind is not a vessel to be filled but a fire to be kindled.
                                  -- Plutarch
 Job cpu time:       0 days  0 hours  4 minutes 38.6 seconds.
 Elapsed time:       0 days  0 hours  0 minutes 23.3 seconds.
 File lengths (MBytes):  RWF=     16 Int=      0 D2E=      0 Chk=      3 Scr=      1
 Normal termination of Gaussian 16 at Sun Sep 17 00:34:17 2023.
