 Entering Gaussian System, Link 0=g16
 AtFile(1): pcseg2.gbs
            -H     0
            S   4   1.00
                  0.754732D+02           0.427821D-02
                  0.113575D+02           0.328672D-01
                  0.260081D+01           0.159578D+00
                  0.735503D+00           0.500000D+00
            S   1   1.00
                  0.231761D+00           1.0000000
            S   1   1.00
                  0.741675D-01           1.0000000
            P   1   1.00
                  0.160000D+01           1.0000000
            P   1   1.00
                  0.450000D+00           1.0000000
            D   1   1.00
                  0.125000D+01           1.0000000
            ****
            -C     0
            S   7   1.00
                  0.731999D+04           0.695369D-03
                  0.109818D+04           0.537138D-02
                  0.250014D+03           0.274734D-01
                  0.707586D+02           0.105078D+00
                  0.228595D+02           0.291262D+00
                  0.803936D+01           0.500000D+00
                  0.289309D+01           0.362224D+00
            S   2   1.00
                  0.521640D+01          -0.957844D-01
                  0.556124D+00           0.500000D+00
            S   1   1.00
                  0.228813D+00           1.0000000
            S   1   1.00
                  0.936338D-01           1.0000000
            P   4   1.00
                  0.339855D+02           0.818395D-02
                  0.772957D+01           0.586921D-01
                  0.224954D+01           0.222514D+00
                  0.767681D+00           0.500000D+00
            P   1   1.00
                  0.263283D+00           1.0000000
            P   1   1.00
                  0.848744D-01           1.0000000
            D   1   1.00
                  0.140000D+01           1.0000000
            D   1   1.00
                  0.450000D+00           1.0000000
            F   1   1.00
                  0.950000D+00           1.0000000
            ****
            -O     0
            S   7   1.00
                  0.135887D+05           0.665492D-03
                  0.203847D+04           0.514222D-02
                  0.464041D+03           0.263472D-01
                  0.131339D+03           0.101500D+00
                  0.425340D+02           0.285877D+00
                  0.150429D+02           0.500000D+00
                  0.546616D+01           0.368211D+00
            S   2   1.00
                  0.100915D+02          -0.100084D+00
                  0.110429D+01           0.500000D+00
            S   1   1.00
                  0.448082D+00           1.0000000
            S   1   1.00
                  0.175325D+00           1.0000000
            P   4   1.00
                  0.608220D+02           0.908253D-02
                  0.140332D+02           0.645878D-01
                  0.418244D+01           0.241502D+00
                  0.142490D+01           0.500000D+00
            P   1   1.00
                  0.478741D+00           1.0000000
            P   1   1.00
                  0.146257D+00           1.0000000
            D   1   1.00
                  0.220000D+01           1.0000000
            D   1   1.00
                  0.650000D+00           1.0000000
            F   1   1.00
                  0.110000D+01           1.0000000
            ****
            -N     0
            S   7   1.00
                  0.101643D+05           0.682757D-03
                  0.152481D+04           0.527488D-02
                  0.347119D+03           0.270037D-01
                  0.982389D+02           0.103673D+00
                  0.317799D+02           0.289575D+00
                  0.112240D+02           0.500000D+00
                  0.406611D+01           0.364621D+00
            S   2   1.00
                  0.747898D+01          -0.975681D-01
                  0.805040D+00           0.500000D+00
            S   1   1.00
                  0.324626D+00           1.0000000
            S   1   1.00
                  0.128132D+00           1.0000000
            P   4   1.00
                  0.482704D+02           0.829547D-02
                  0.110815D+02           0.596223D-01
                  0.326643D+01           0.227889D+00
                  0.111680D+01           0.500000D+00
            P   1   1.00
                  0.382049D+00           1.0000000
            P   1   1.00
                  0.121222D+00           1.0000000
            D   1   1.00
                  0.180000D+01           1.0000000
            D   1   1.00
                  0.550000D+00           1.0000000
            F   1   1.00
                  0.102000D+01           1.0000000
            ****
            -F     0
            S   7   1.00
                  0.174507D+05           0.655972D-03
                  0.261768D+04           0.506944D-02
                  0.595857D+03           0.259899D-01
                  0.168651D+03           0.100353D+00
                  0.546654D+02           0.284095D+00
                  0.193717D+02           0.500000D+00
                  0.706202D+01           0.370721D+00
            S   2   1.00
                  0.131197D+02          -0.101997D+00
                  0.145046D+01           0.500000D+00
            S   1   1.00
                  0.588255D+00           1.0000000
            S   1   1.00
                  0.227960D+00           1.0000000
            P   4   1.00
                  0.779407D+02           0.931135D-02
                  0.180425D+02           0.663964D-01
                  0.542342D+01           0.246386D+00
                  0.184876D+01           0.500000D+00
            P   1   1.00
                  0.617455D+00           1.0000000
            P   1   1.00
                  0.185496D+00           1.0000000
            D   1   1.00
                  0.280000D+01           1.0000000
            D   1   1.00
                  0.800000D+00           1.0000000
            F   1   1.00
                  0.120000D+01           1.0000000
            ****
            -Cl     0
            S   8   1.00
                  0.154272D+06           0.222473D-03
                  0.231232D+05           0.172590D-02
                  0.526257D+04           0.899286D-02
                  0.148995D+04           0.367724D-01
                  0.485417D+03           0.121446D+00
                  0.174634D+03           0.304148D+00
                  0.672393D+02           0.500000D+00
                  0.265780D+02           0.360252D+00
            S   3   1.00
                  0.131826D+03          -0.531330D-01
                  0.400703D+02          -0.233346D+00
                  0.789448D+01           0.500000D+00
            S   2   1.00
                  0.427711D+01           0.500000D+00
                  0.196233D+01           0.370517D+00
            S   1   1.00
                  0.520793D+00           1.0000000
            S   1   1.00
                  0.181633D+00           1.0000000
            P   7   1.00
                  0.124440D+04           0.988206D-03
                  0.295109D+03           0.829674D-02
                  0.947224D+02           0.430906D-01
                  0.352588D+02           0.148443D+00
                  0.144211D+02           0.344744D+00
                  0.610371D+01           0.500000D+00
                  0.258886D+01           0.348278D+00
            P   2   1.00
                  0.109447D+02          -0.196768D-01
                  0.104413D+01           0.500000D+00
            P   1   1.00
                  0.376184D+00           1.0000000
            P   1   1.00
                  0.120613D+00           1.0000000
            D   1   1.00
                  0.231000D+01           1.0000000
            D   1   1.00
                  0.520000D+00           1.0000000
            F   1   1.00
                  0.720000D+00           1.0000000
            ****
            -S     0
            S   8   1.00
                  0.134700D+06           0.226231D-03
                  0.201904D+05           0.175488D-02
                  0.459528D+04           0.914190D-02
                  0.130109D+04           0.373551D-01
                  0.423902D+03           0.123121D+00
                  0.152485D+03           0.306801D+00
                  0.586925D+02           0.500000D+00
                  0.231461D+02           0.354358D+00
            S   3   1.00
                  0.116327D+03          -0.491772D-01
                  0.352841D+02          -0.215962D+00
                  0.677831D+01           0.500000D+00
            S   2   1.00
                  0.360404D+01           0.500000D+00
                  0.164871D+01           0.366278D+00
            S   1   1.00
                  0.421821D+00           1.0000000
            S   1   1.00
                  0.147554D+00           1.0000000
            P   7   1.00
                  0.104863D+04           0.105273D-02
                  0.248717D+03           0.879338D-02
                  0.797887D+02           0.453358D-01
                  0.296023D+02           0.154476D+00
                  0.120627D+02           0.352366D+00
                  0.507628D+01           0.500000D+00
                  0.213375D+01           0.346429D+00
            P   2   1.00
                  0.928958D+01          -0.185932D-01
                  0.837819D+00           0.500000D+00
            P   1   1.00
                  0.301495D+00           1.0000000
            P   1   1.00
                  0.974740D-01           1.0000000
            D   1   1.00
                  0.210000D+01           1.0000000
            D   1   1.00
                  0.480000D+00           1.0000000
            F   1   1.00
                  0.660000D+00           1.0000000
            ****
            -Br     0
            S    10   1.00
                  0.233625D+07           0.532336D-04
                  0.349961D+06           0.413715D-03
                  0.796444D+05           0.217123D-02
                  0.225555D+05           0.910109D-02
                  0.735546D+04           0.323789D-01
                  0.265352D+04           0.988755D-01
                  0.103517D+04           0.248138D+00
                  0.422205D+03           0.474328D+00
                  0.180035D+03           0.500000D+00
                  0.793308D+02           0.187769D+00
            S    4   1.00
                  0.620834D+03          -0.226511D-01
                  0.190829D+03          -0.109497D+00
                  0.312505D+02           0.500000D+00
                  0.135270D+02           0.492812D+00
            S    2   1.00
                  0.216097D+02          -0.165418D+00
                  0.372566D+01           0.500000D+00
            S    1   1.00
                  0.169770D+01           1.0000000
            S    1   1.00
                  0.489332D+00           1.0000000
            S    1   1.00
                  0.175712D+00           1.0000000
            P    8   1.00
                  0.960829D+04           0.478974D-03
                  0.227618D+04           0.417853D-02
                  0.736723D+03           0.229315D-01
                  0.281579D+03           0.892653D-01
                  0.118395D+03           0.255288D+00
                  0.527481D+02           0.479074D+00
                  0.245098D+02           0.500000D+00
                  0.112009D+02           0.200944D+00
            P    4   1.00
                  0.587849D+02          -0.189674D-01
                  0.918962D+01           0.264104D+00
                  0.413895D+01           0.500000D+00
                  0.184225D+01           0.319316D+00
            P    1   1.00
                  0.713862D+00           1.0000000
            P    1   1.00
                  0.274232D+00           1.0000000
            P    1   1.00
                  0.944411D-01           1.0000000
            D    7   1.00
                  0.398470D+03           0.204066D-02
                  0.118967D+03           0.175171D-01
                  0.450197D+02           0.829708D-01
                  0.190320D+02           0.236284D+00
                  0.855686D+01           0.428468D+00
                  0.382950D+01           0.500000D+00
                  0.166291D+01           0.349360D+00
            D    1   1.00
                  0.672953D+00           1.0000000
            D    1   1.00
                  0.252000D+00           1.0000000
            F    1   1.00
                  0.530000D+00           1.0000000
            ****
            -Si     0
            S    8   1.00
                  0.996133D+05           0.235546D-03
                  0.149311D+05           0.182707D-02
                  0.339820D+04           0.951425D-02
                  0.962140D+03           0.388172D-01
                  0.313430D+03           0.127328D+00
                  0.112683D+03           0.313522D+00
                  0.433372D+02           0.500000D+00
                  0.170029D+02           0.340347D+00
            S    3   1.00
                  0.884208D+02          -0.404451D-01
                  0.266756D+02          -0.178059D+00
                  0.479640D+01           0.500000D+00
            S    2   1.00
                  0.239385D+01           0.500000D+00
                  0.108333D+01           0.338016D+00
            S    1   1.00
                  0.252420D+00           1.0000000
            S    1   1.00
                  0.891210D-01           1.0000000
            P    7   1.00
                  0.709901D+03           0.123028D-02
                  0.168426D+03           0.101366D-01
                  0.539946D+02           0.511840D-01
                  0.198646D+02           0.169967D+00
                  0.801369D+01           0.370717D+00
                  0.331870D+01           0.500000D+00
                  0.136112D+01           0.344128D+00
            P    2   1.00
                  0.622158D+01          -0.166609D-01
                  0.503049D+00           0.500000D+00
            P    1   1.00
                  0.179848D+00           1.0000000
            P    1   1.00
                  0.591912D-01           1.0000000
            D    1   1.00
                  0.168000D+01           1.0000000
            D    1   1.00
                  0.380000D+00           1.0000000
            F    1   1.00
                  0.540000D+00           1.0000000
            ****
            -P     0
            S    8   1.00
                  0.116416D+06           0.230715D-03
                  0.174500D+05           0.178960D-02
                  0.397149D+04           0.932116D-02
                  0.112447D+04           0.380591D-01
                  0.366347D+03           0.125148D+00
                  0.131757D+03           0.310022D+00
                  0.506988D+02           0.500000D+00
                  0.199436D+02           0.347528D+00
            S    3   1.00
                  0.101878D+03          -0.446755D-01
                  0.308249D+02          -0.196376D+00
                  0.573688D+01           0.500000D+00
            S    2   1.00
                  0.296868D+01           0.500000D+00
                  0.135315D+01           0.355098D+00
            S    1   1.00
                  0.332196D+00           1.0000000
            S    1   1.00
                  0.116229D+00           1.0000000
            P    7   1.00
                  0.873928D+03           0.112375D-02
                  0.207298D+03           0.933330D-02
                  0.664628D+02           0.477213D-01
                  0.245665D+02           0.160733D+00
                  0.996820D+01           0.359760D+00
                  0.416536D+01           0.500000D+00
                  0.173022D+01           0.346593D+00
            P    2   1.00
                  0.772530D+01          -0.175718D-01
                  0.657252D+00           0.500000D+00
            P    1   1.00
                  0.239903D+00           1.0000000
            P    1   1.00
                  0.800988D-01           1.0000000
            D    1   1.00
                  0.189000D+01           1.0000000
            D    1   1.00
                  0.430000D+00           1.0000000
            F    1   1.00
                  0.600000D+00           1.0000000
            ****
            
 Initial command:
 /usr/local/apps/g16_b01_avx/g16/l1.exe "/wrk/irikura/Gau-185400.inp" -scrdir="/wrk/irikura/"
 Entering Link 1 = /usr/local/apps/g16_b01_avx/g16/l1.exe PID=    185402.
  
 Copyright (c) 1988-2017, Gaussian, Inc.  All Rights Reserved.
  
 This is part of the Gaussian(R) 16 program.  It is based on
 the Gaussian(R) 09 system (copyright 2009, Gaussian, Inc.),
 the Gaussian(R) 03 system (copyright 2003, Gaussian, Inc.),
 the Gaussian(R) 98 system (copyright 1998, Gaussian, Inc.),
 the Gaussian(R) 94 system (copyright 1995, Gaussian, Inc.),
 the Gaussian 92(TM) system (copyright 1992, Gaussian, Inc.),
 the Gaussian 90(TM) system (copyright 1990, Gaussian, Inc.),
 the Gaussian 88(TM) system (copyright 1988, Gaussian, Inc.),
 the Gaussian 86(TM) system (copyright 1986, Carnegie Mellon
 University), and the Gaussian 82(TM) system (copyright 1983,
 Carnegie Mellon University). Gaussian is a federally registered
 trademark of Gaussian, Inc.
  
 This software contains proprietary and confidential information,
 including trade secrets, belonging to Gaussian, Inc.
  
 This software is provided under written license and may be
 used, copied, transmitted, or stored only in accord with that
 written license.
  
 The following legend is applicable only to US Government
 contracts under FAR:
  
                    RESTRICTED RIGHTS LEGEND
  
 Use, reproduction and disclosure by the US Government is
 subject to restrictions as set forth in subparagraphs (a)
 and (c) of the Commercial Computer Software - Restricted
 Rights clause in FAR 52.227-19.
  
 Gaussian, Inc.
 340 Quinnipiac St., Bldg. 40, Wallingford CT 06492
  
  
 ---------------------------------------------------------------
 Warning -- This program may not be used in any manner that
 competes with the business of Gaussian, Inc. or will provide
 assistance to any competitor of Gaussian, Inc.  The licensee
 of this program is prohibited from giving any competitor of
 Gaussian, Inc. access to this program.  By using this program,
 the user acknowledges that Gaussian, Inc. is engaged in the
 business of creating and licensing software in the field of
 computational chemistry and represents and warrants to the
 licensee that it is not a competitor of Gaussian, Inc. and that
 it will not use this program in any manner prohibited above.
 ---------------------------------------------------------------
  

 Cite this work as:
 Gaussian 16, Revision B.01,
 M. J. Frisch, G. W. Trucks, H. B. Schlegel, G. E. Scuseria, 
 M. A. Robb, J. R. Cheeseman, G. Scalmani, V. Barone, 
 G. A. Petersson, H. Nakatsuji, X. Li, M. Caricato, A. V. Marenich, 
 J. Bloino, B. G. Janesko, R. Gomperts, B. Mennucci, H. P. Hratchian, 
 J. V. Ortiz, A. F. Izmaylov, J. L. Sonnenberg, D. Williams-Young, 
 F. Ding, F. Lipparini, F. Egidi, J. Goings, B. Peng, A. Petrone, 
 T. Henderson, D. Ranasinghe, V. G. Zakrzewski, J. Gao, N. Rega, 
 G. Zheng, W. Liang, M. Hada, M. Ehara, K. Toyota, R. Fukuda, 
 J. Hasegawa, M. Ishida, T. Nakajima, Y. Honda, O. Kitao, H. Nakai, 
 T. Vreven, K. Throssell, J. A. Montgomery, Jr., J. E. Peralta, 
 F. Ogliaro, M. J. Bearpark, J. J. Heyd, E. N. Brothers, K. N. Kudin, 
 V. N. Staroverov, T. A. Keith, R. Kobayashi, J. Normand, 
 K. Raghavachari, A. P. Rendell, J. C. Burant, S. S. Iyengar, 
 J. Tomasi, M. Cossi, J. M. Millam, M. Klene, C. Adamo, R. Cammi, 
 J. W. Ochterski, R. L. Martin, K. Morokuma, O. Farkas, 
 J. B. Foresman, and D. J. Fox, Gaussian, Inc., Wallingford CT, 2016.
 
 ******************************************
 Gaussian 16:  ES64L-G16RevB.01 20-Dec-2017
                28-Sep-2023 
 ******************************************
 %chk=sih2o.chk
 %mem=500mw
 %nprocs=4
 Will use up to    4 processors via shared memory.
 ---------------------------------------
 # b3lyp/gen opt freq CPHF(Grid=OneStep)
 ---------------------------------------
 1/18=20,19=15,26=3,38=1/1,3;
 2/9=110,12=2,17=6,18=5,40=1/2;
 3/5=7,11=2,25=1,30=1,71=1,74=-5/1,2,3;
 4//1;
 5/5=2,38=5/2;
 6/7=2,8=2,9=2,10=2,28=1/1;
 7//1,2,3,16;
 1/18=20,19=15,26=3/3(2);
 2/9=110/2;
 99//99;
 2/9=110/2;
 3/5=7,6=1,11=2,25=1,30=1,71=1,74=-5,82=7/1,2,3;
 4/5=5,16=3,69=1/1;
 5/5=2,38=5/2;
 7//1,2,3,16;
 1/18=20,19=15,26=3/3(-5);
 2/9=110/2;
 6/7=2,8=2,9=2,10=2,19=2,28=1/1;
 99/9=1/99;
 -----------------------
 silanone, B3LYP/pcseg-2
 -----------------------
 Symbolic Z-matrix:
 Charge =  0 Multiplicity = 1
 Si                    0.        0.        0.437 
 O                     0.        0.       -1.08138 
 H                     0.        1.22575   1.26651 
 H                     0.       -1.22575   1.26651 
 

 GradGradGradGradGradGradGradGradGradGradGradGradGradGradGradGradGradGrad
 Berny optimization.
 Initialization pass.
                           ----------------------------
                           !    Initial Parameters    !
                           ! (Angstroms and Degrees)  !
 --------------------------                            --------------------------
 ! Name  Definition              Value          Derivative Info.                !
 --------------------------------------------------------------------------------
 ! R1    R(1,2)                  1.5184         estimate D2E/DX2                !
 ! R2    R(1,3)                  1.48           estimate D2E/DX2                !
 ! R3    R(1,4)                  1.48           estimate D2E/DX2                !
 ! A1    A(2,1,3)              124.0877         estimate D2E/DX2                !
 ! A2    A(2,1,4)              124.0877         estimate D2E/DX2                !
 ! A3    A(3,1,4)              111.8246         estimate D2E/DX2                !
 ! D1    D(2,1,4,3)            180.0            estimate D2E/DX2                !
 --------------------------------------------------------------------------------
 Trust Radius=3.00D-01 FncErr=1.00D-07 GrdErr=1.00D-06 EigMax=2.50D+02 EigMin=1.00D-04
 Number of steps in this run=     20 maximum allowed number of steps=    100.
 GradGradGradGradGradGradGradGradGradGradGradGradGradGradGradGradGradGrad

                          Input orientation:                          
 ---------------------------------------------------------------------
 Center     Atomic      Atomic             Coordinates (Angstroms)
 Number     Number       Type             X           Y           Z
 ---------------------------------------------------------------------
      1         14           0        0.000000    0.000000    0.437001
      2          8           0        0.000000    0.000000   -1.081380
      3          1           0        0.000000    1.225746    1.266509
      4          1           0        0.000000   -1.225746    1.266509
 ---------------------------------------------------------------------
                    Distance matrix (angstroms):
                    1          2          3          4
     1  Si   0.000000
     2  O    1.518381   0.000000
     3  H    1.480046   2.648591   0.000000
     4  H    1.480046   2.648591   2.451492   0.000000
 Stoichiometry    H2OSi
 Framework group  C2V[C2(OSi),SGV(H2)]
 Deg. of freedom     3
 Full point group                 C2V     NOp   4
 Largest Abelian subgroup         C2V     NOp   4
 Largest concise Abelian subgroup C2      NOp   2
                         Standard orientation:                         
 ---------------------------------------------------------------------
 Center     Atomic      Atomic             Coordinates (Angstroms)
 Number     Number       Type             X           Y           Z
 ---------------------------------------------------------------------
      1         14           0        0.000000    0.000000    0.437001
      2          8           0        0.000000   -0.000000   -1.081380
      3          1           0        0.000000    1.225746    1.266509
      4          1           0       -0.000000   -1.225746    1.266509
 ---------------------------------------------------------------------
 Rotational constants (GHZ):         166.8787705          18.6196279          16.7506600
 General basis read from cards:  (5D, 7F)
 There are    45 symmetry adapted cartesian basis functions of A1  symmetry.
 There are    10 symmetry adapted cartesian basis functions of A2  symmetry.
 There are    21 symmetry adapted cartesian basis functions of B1  symmetry.
 There are    28 symmetry adapted cartesian basis functions of B2  symmetry.
 There are    38 symmetry adapted basis functions of A1  symmetry.
 There are    10 symmetry adapted basis functions of A2  symmetry.
 There are    19 symmetry adapted basis functions of B1  symmetry.
 There are    25 symmetry adapted basis functions of B2  symmetry.
    92 basis functions,   157 primitive gaussians,   104 cartesian basis functions
    12 alpha electrons       12 beta electrons
       nuclear repulsion energy        52.4573198600 Hartrees.
 NAtoms=    4 NActive=    4 NUniq=    3 SFac= 1.78D+00 NAtFMM=   60 NAOKFM=F Big=F
 Integral buffers will be    131072 words long.
 Raffenetti 2 integral format.
 Two-electron integral symmetry is turned on.
 One-electron integrals computed using PRISM.
 NBasis=    92 RedAO= T EigKep=  5.47D-03  NBF=    38    10    19    25
 NBsUse=    92 1.00D-06 EigRej= -1.00D+00 NBFU=    38    10    19    25
 ExpMin= 5.92D-02 ExpMax= 9.96D+04 ExpMxC= 9.62D+02 IAcc=3 IRadAn=         5 AccDes= 0.00D+00
 Harris functional with IExCor=  402 and IRadAn=       5 diagonalized for initial guess.
 HarFok:  IExCor=  402 AccDes= 0.00D+00 IRadAn=         5 IDoV= 1 UseB2=F ITyADJ=14
 ICtDFT=  3500011 ScaDFX=  1.000000  1.000000  1.000000  1.000000
 FoFCou: FMM=F IPFlag=           0 FMFlag=      100000 FMFlg1=           0
         NFxFlg=           0 DoJE=T BraDBF=F KetDBF=T FulRan=T
         wScrn=  0.000000 ICntrl=       500 IOpCl=  0 I1Cent=   200000004 NGrid=           0
         NMat0=    1 NMatS0=      1 NMatT0=    0 NMatD0=    1 NMtDS0=    0 NMtDT0=    0
 Petite list used in FoFCou.
 Initial guess orbital symmetries:
       Occupied  (A1) (A1) (A1) (A1) (B2) (B1) (A1) (A1) (A1) (B2)
                 (B1) (B2)
       Virtual   (B1) (A1) (A1) (B2) (A1) (B2) (B1) (A1) (B2) (A1)
                 (B1) (A1) (A2) (B2) (B1) (A1) (A1) (B2) (B2) (A1)
                 (A2) (B1) (B2) (A1) (B1) (A1) (A1) (B2) (A2) (A1)
                 (B1) (A1) (B2) (B2) (B1) (A1) (A2) (B2) (B1) (A1)
                 (B2) (A1) (B1) (B2) (A1) (A2) (A1) (A1) (B1) (B2)
                 (A1) (A2) (B2) (A1) (B1) (B1) (B2) (A2) (A1) (B1)
                 (B2) (A2) (A1) (B2) (B1) (B2) (A1) (B1) (A2) (A1)
                 (A1) (B2) (A1) (B2) (A2) (A1) (B1) (B2) (A1) (A1)
 The electronic state of the initial guess is 1-A1.
 Keep R1 ints in memory in symmetry-blocked form, NReq=12887837.
 Requested convergence on RMS density matrix=1.00D-08 within 128 cycles.
 Requested convergence on MAX density matrix=1.00D-06.
 Requested convergence on             energy=1.00D-06.
 No special actions if energy rises.
 Integral accuracy reduced to 1.0D-05 until final iterations.
 Initial convergence to 1.0D-05 achieved.  Increase integral accuracy.
 SCF Done:  E(RB3LYP) =  -365.978114624     A.U. after   13 cycles
            NFock= 13  Conv=0.42D-08     -V/T= 2.0012

 **********************************************************************

            Population analysis using the SCF Density.

 **********************************************************************

 Orbital symmetries:
       Occupied  (A1) (A1) (A1) (B1) (B2) (A1) (A1) (A1) (B2) (A1)
                 (B1) (B2)
       Virtual   (B1) (A1) (A1) (A1) (B2) (B2) (B1) (A1) (B2) (A1)
                 (A2) (B1) (A1) (B2) (B1) (A1) (A1) (B2) (B2) (A2)
                 (B1) (A1) (B2) (A1) (B1) (A1) (A1) (B2) (A2) (A1)
                 (B1) (B2) (A1) (B1) (B2) (A1) (A2) (B2) (A1) (B1)
                 (B2) (A1) (B1) (B2) (A1) (A2) (A1) (B1) (A1) (B2)
                 (A2) (B2) (A1) (A1) (B1) (B1) (A2) (B2) (A1) (B1)
                 (B2) (A2) (A1) (B2) (B1) (B2) (A1) (B1) (A2) (A1)
                 (B2) (A1) (B2) (A1) (A2) (A1) (B1) (B2) (A1) (A1)
 The electronic state is 1-A1.
 Alpha  occ. eigenvalues --  -66.13109 -19.09438  -5.31540  -3.67823  -3.67047
 Alpha  occ. eigenvalues --   -3.66921  -0.93164  -0.53194  -0.40414  -0.36114
 Alpha  occ. eigenvalues --   -0.32832  -0.29624
 Alpha virt. eigenvalues --   -0.09035  -0.01678   0.02068   0.08601   0.09592
 Alpha virt. eigenvalues --    0.10002   0.13955   0.23764   0.26220   0.33903
 Alpha virt. eigenvalues --    0.36667   0.39074   0.39353   0.49857   0.52717
 Alpha virt. eigenvalues --    0.57165   0.60972   0.63414   0.80874   0.86040
 Alpha virt. eigenvalues --    0.87005   0.89101   1.02235   1.03338   1.04556
 Alpha virt. eigenvalues --    1.10819   1.24075   1.34734   1.44017   1.49593
 Alpha virt. eigenvalues --    1.50403   1.58093   1.58923   1.72861   1.74843
 Alpha virt. eigenvalues --    1.86683   1.88742   1.89402   2.05130   2.09757
 Alpha virt. eigenvalues --    2.18801   2.24980   2.52637   2.59106   2.83850
 Alpha virt. eigenvalues --    3.03413   3.12651   3.17406   3.19777   3.53103
 Alpha virt. eigenvalues --    3.74602   3.79952   3.81244   3.83589   3.84707
 Alpha virt. eigenvalues --    3.98889   3.99973   4.01457   4.05881   4.06888
 Alpha virt. eigenvalues --    4.11726   4.19360   4.24199   4.25809   4.37046
 Alpha virt. eigenvalues --    4.41854   4.45157   4.46442   4.53158   4.63015
 Alpha virt. eigenvalues --    4.92566   4.93707   5.06706   5.10626   6.08313
 Alpha virt. eigenvalues --    6.09254   6.43076   6.50611   6.78998  15.96109
          Condensed to atoms (all electrons):
               1          2          3          4
     1  Si  11.854396   0.572502   0.332188   0.332188
     2  O    0.572502   8.142312  -0.032913  -0.032913
     3  H    0.332188  -0.032913   0.906388  -0.075795
     4  H    0.332188  -0.032913  -0.075795   0.906388
 Mulliken charges:
               1
     1  Si   0.908726
     2  O   -0.648988
     3  H   -0.129869
     4  H   -0.129869
 Sum of Mulliken charges =   0.00000
 Mulliken charges with hydrogens summed into heavy atoms:
               1
     1  Si   0.648988
     2  O   -0.648988
 Electronic spatial extent (au):  <R**2>=            108.8377
 Charge=             -0.0000 electrons
 Dipole moment (field-independent basis, Debye):
    X=              0.0000    Y=             -0.0000    Z=              3.7849  Tot=              3.7849
 Quadrupole moment (field-independent basis, Debye-Ang):
   XX=            -16.8902   YY=            -19.4393   ZZ=            -22.4427
   XY=             -0.0000   XZ=              0.0000   YZ=             -0.0000
 Traceless Quadrupole moment (field-independent basis, Debye-Ang):
   XX=              2.7006   YY=              0.1514   ZZ=             -2.8520
   XY=             -0.0000   XZ=              0.0000   YZ=             -0.0000
 Octapole moment (field-independent basis, Debye-Ang**2):
  XXX=              0.0000  YYY=              0.0000  ZZZ=              0.7650  XYY=              0.0000
  XXY=             -0.0000  XXZ=              0.3600  XZZ=              0.0000  YZZ=             -0.0000
  YYZ=             -1.5058  XYZ=             -0.0000
 Hexadecapole moment (field-independent basis, Debye-Ang**3):
 XXXX=            -19.4437 YYYY=            -43.6227 ZZZZ=           -104.1213 XXXY=             -0.0000
 XXXZ=              0.0000 YYYX=             -0.0000 YYYZ=             -0.0000 ZZZX=              0.0000
 ZZZY=             -0.0000 XXYY=            -10.7213 XXZZ=            -19.5937 YYZZ=            -25.4979
 XXYZ=             -0.0000 YYXZ=              0.0000 ZZXY=             -0.0000
 N-N= 5.245731985998D+01 E-N=-9.761138120486D+02  KE= 3.655216168114D+02
 Symmetry A1   KE= 3.066207718832D+02
 Symmetry A2   KE= 1.119870794529D-33
 Symmetry B1   KE= 2.834657710904D+01
 Symmetry B2   KE= 3.055426781917D+01
 Calling FoFJK, ICntrl=      2127 FMM=F ISym2X=1 I1Cent= 0 IOpClX= 0 NMat=1 NMatS=1 NMatT=0.
 ***** Axes restored to original set *****
 -------------------------------------------------------------------
 Center     Atomic                   Forces (Hartrees/Bohr)
 Number     Number              X              Y              Z
 -------------------------------------------------------------------
      1       14          -0.000000000   -0.000000000    0.000118367
      2        8          -0.000000000   -0.000000000   -0.000073386
      3        1           0.000000000    0.000060347   -0.000022490
      4        1           0.000000000   -0.000060347   -0.000022490
 -------------------------------------------------------------------
 Cartesian Forces:  Max     0.000118367 RMS     0.000048038

 GradGradGradGradGradGradGradGradGradGradGradGradGradGradGradGradGradGrad
 Berny optimization.
 FormGI is forming the generalized inverse of G from B-inverse, IUseBI=4.
 Internal  Forces:  Max     0.000097794 RMS     0.000056726
 Search for a local minimum.
 Step number   1 out of a maximum of   20
 All quantities printed in internal units (Hartrees-Bohrs-Radians)
 Mixed Optimization -- En-DIIS/RFO-DIIS
 Second derivative matrix not updated -- first step.
 The second derivative matrix:
                          R1        R2        R3        A1        A2
           R1           0.70898
           R2           0.00000   0.17771
           R3           0.00000   0.00000   0.17771
           A1           0.00000   0.00000   0.00000   0.16000
           A2           0.00000   0.00000   0.00000   0.00000   0.16000
           A3           0.00000   0.00000   0.00000   0.00000   0.00000
           D1           0.00000   0.00000   0.00000   0.00000   0.00000
                          A3        D1
           A3           0.16000
           D1           0.00000   0.00368
 ITU=  0
     Eigenvalues ---    0.00368   0.16000   0.16000   0.17771   0.17771
     Eigenvalues ---    0.70898
 RFO step:  Lambda=-1.12976145D-07 EMin= 3.68272228D-03
 Linear search not attempted -- first point.
 Iteration  1 RMS(Cart)=  0.00040505 RMS(Int)=  0.00000007
 Iteration  2 RMS(Cart)=  0.00000006 RMS(Int)=  0.00000000
 ClnCor:  largest displacement from symmetrization is 1.79D-10 for atom     1.
 Variable       Old X    -DE/DX   Delta X   Delta X   Delta X     New X
                                 (Linear)    (Quad)   (Total)
    R1        2.86932   0.00007   0.00000   0.00010   0.00010   2.86943
    R2        2.79688   0.00004   0.00000   0.00021   0.00021   2.79709
    R3        2.79688   0.00004   0.00000   0.00021   0.00021   2.79709
    A1        2.16574  -0.00005   0.00000  -0.00031  -0.00031   2.16543
    A2        2.16574  -0.00005   0.00000  -0.00031  -0.00031   2.16543
    A3        1.95171   0.00010   0.00000   0.00061   0.00061   1.95232
    D1        3.14159  -0.00000   0.00000  -0.00000   0.00000   3.14159
         Item               Value     Threshold  Converged?
 Maximum Force            0.000098     0.000450     YES
 RMS     Force            0.000057     0.000300     YES
 Maximum Displacement     0.000653     0.001800     YES
 RMS     Displacement     0.000405     0.001200     YES
 Predicted change in Energy=-5.648807D-08
 Optimization completed.
    -- Stationary point found.
                           ----------------------------
                           !   Optimized Parameters   !
                           ! (Angstroms and Degrees)  !
 --------------------------                            --------------------------
 ! Name  Definition              Value          Derivative Info.                !
 --------------------------------------------------------------------------------
 ! R1    R(1,2)                  1.5184         -DE/DX =    0.0001              !
 ! R2    R(1,3)                  1.48           -DE/DX =    0.0                 !
 ! R3    R(1,4)                  1.48           -DE/DX =    0.0                 !
 ! A1    A(2,1,3)              124.0877         -DE/DX =    0.0                 !
 ! A2    A(2,1,4)              124.0877         -DE/DX =    0.0                 !
 ! A3    A(3,1,4)              111.8246         -DE/DX =    0.0001              !
 ! D1    D(2,1,4,3)            180.0            -DE/DX =    0.0                 !
 --------------------------------------------------------------------------------
 GradGradGradGradGradGradGradGradGradGradGradGradGradGradGradGradGradGrad

                          Input orientation:                          
 ---------------------------------------------------------------------
 Center     Atomic      Atomic             Coordinates (Angstroms)
 Number     Number       Type             X           Y           Z
 ---------------------------------------------------------------------
      1         14           0       -0.000000    0.000000    0.437001
      2          8           0        0.000000    0.000000   -1.081380
      3          1           0       -0.000000    1.225746    1.266509
      4          1           0       -0.000000   -1.225746    1.266509
 ---------------------------------------------------------------------
                    Distance matrix (angstroms):
                    1          2          3          4
     1  Si   0.000000
     2  O    1.518381   0.000000
     3  H    1.480046   2.648591   0.000000
     4  H    1.480046   2.648591   2.451492   0.000000
 Stoichiometry    H2OSi
 Framework group  C2V[C2(OSi),SGV(H2)]
 Deg. of freedom     3
 Full point group                 C2V     NOp   4
 Largest Abelian subgroup         C2V     NOp   4
 Largest concise Abelian subgroup C2      NOp   2
                         Standard orientation:                         
 ---------------------------------------------------------------------
 Center     Atomic      Atomic             Coordinates (Angstroms)
 Number     Number       Type             X           Y           Z
 ---------------------------------------------------------------------
      1         14           0        0.000000    0.000000    0.437001
      2          8           0        0.000000    0.000000   -1.081380
      3          1           0        0.000000    1.225746    1.266509
      4          1           0       -0.000000   -1.225746    1.266509
 ---------------------------------------------------------------------
 Rotational constants (GHZ):         166.8787705          18.6196279          16.7506600
 1\1\GINC-GAMBA\FOpt\RB3LYP\Gen\H2O1Si1\IRIKURA\28-Sep-2023\0\\# b3lyp/
 gen opt freq CPHF(Grid=OneStep)\\silanone, B3LYP/pcseg-2\\0,1\Si,0.,0.
 ,0.437001\O,0.,0.,-1.08138\H,0.,1.225746,1.266509\H,0.,-1.225746,1.266
 509\\Version=ES64L-G16RevB.01\State=1-A1\HF=-365.9781146\RMSD=4.194e-0
 9\RMSF=4.804e-05\Dipole=0.,0.,1.48908\Quadrupole=2.0077947,0.112591,-2
 .1203856,0.,0.,0.\PG=C02V [C2(O1Si1),SGV(H2)]\\@


 MUD THROWN IS GROUND LOST -- FROM A TEA BAG
 Job cpu time:       0 days  0 hours  0 minutes 14.0 seconds.
 Elapsed time:       0 days  0 hours  0 minutes  3.5 seconds.
 File lengths (MBytes):  RWF=     10 Int=      0 D2E=      0 Chk=      2 Scr=      1
 Normal termination of Gaussian 16 at Thu Sep 28 22:14:52 2023.
 Link1:  Proceeding to internal job step number  2.
 ------------------------------------------------------------------
 #N Geom=AllCheck Guess=TCheck SCRF=Check GenChk RB3LYP/ChkBas Freq
 ------------------------------------------------------------------
 1/10=4,29=7,30=1,38=1,40=1/1,3;
 2/12=2,40=1/2;
 3/5=7,6=2,11=2,14=-4,25=1,30=1,67=1,70=2,71=2,74=-5,82=7,116=1,140=1/1,2,3;
 4/5=101/1;
 5/5=2,38=6,98=1/2;
 8/6=4,10=90,11=11/1;
 11/6=1,8=1,9=11,15=111,16=1/1,2,10;
 10/6=1,60=-420/2;
 6/7=2,8=2,9=2,10=2,28=1/1;
 7/8=1,10=1,25=1/1,2,3,16;
 1/10=4,30=1/3;
 99//99;
 Structure from the checkpoint file:  "sih2o.chk"
 -----------------------
 silanone, B3LYP/pcseg-2
 -----------------------
 Charge =  0 Multiplicity = 1
 Redundant internal coordinates found in file.  (old form).
 Si,0,0.,0.,0.437001
 O,0,0.,0.,-1.08138
 H,0,0.,1.225746,1.266509
 H,0,0.,-1.225746,1.266509
 Recover connectivity data from disk.

 GradGradGradGradGradGradGradGradGradGradGradGradGradGradGradGradGradGrad
 Berny optimization.
 Initialization pass.
                           ----------------------------
                           !    Initial Parameters    !
                           ! (Angstroms and Degrees)  !
 --------------------------                            --------------------------
 ! Name  Definition              Value          Derivative Info.                !
 --------------------------------------------------------------------------------
 ! R1    R(1,2)                  1.5184         calculate D2E/DX2 analytically  !
 ! R2    R(1,3)                  1.48           calculate D2E/DX2 analytically  !
 ! R3    R(1,4)                  1.48           calculate D2E/DX2 analytically  !
 ! A1    A(2,1,3)              124.0877         calculate D2E/DX2 analytically  !
 ! A2    A(2,1,4)              124.0877         calculate D2E/DX2 analytically  !
 ! A3    A(3,1,4)              111.8246         calculate D2E/DX2 analytically  !
 ! D1    D(2,1,4,3)            180.0            calculate D2E/DX2 analytically  !
 --------------------------------------------------------------------------------
 Trust Radius=3.00D-01 FncErr=1.00D-07 GrdErr=1.00D-07 EigMax=2.50D+02 EigMin=1.00D-04
 Number of steps in this run=      2 maximum allowed number of steps=      2.
 GradGradGradGradGradGradGradGradGradGradGradGradGradGradGradGradGradGrad

                          Input orientation:                          
 ---------------------------------------------------------------------
 Center     Atomic      Atomic             Coordinates (Angstroms)
 Number     Number       Type             X           Y           Z
 ---------------------------------------------------------------------
      1         14           0       -0.000000    0.000000    0.437001
      2          8           0        0.000000   -0.000000   -1.081380
      3          1           0       -0.000000    1.225746    1.266509
      4          1           0       -0.000000   -1.225746    1.266509
 ---------------------------------------------------------------------
                    Distance matrix (angstroms):
                    1          2          3          4
     1  Si   0.000000
     2  O    1.518381   0.000000
     3  H    1.480046   2.648591   0.000000
     4  H    1.480046   2.648591   2.451492   0.000000
 Stoichiometry    H2OSi
 Framework group  C2V[C2(OSi),SGV(H2)]
 Deg. of freedom     3
 Full point group                 C2V     NOp   4
 Largest Abelian subgroup         C2V     NOp   4
 Largest concise Abelian subgroup C2      NOp   2
                         Standard orientation:                         
 ---------------------------------------------------------------------
 Center     Atomic      Atomic             Coordinates (Angstroms)
 Number     Number       Type             X           Y           Z
 ---------------------------------------------------------------------
      1         14           0        0.000000   -0.000000    0.437001
      2          8           0        0.000000    0.000000   -1.081380
      3          1           0        0.000000    1.225746    1.266509
      4          1           0       -0.000000   -1.225746    1.266509
 ---------------------------------------------------------------------
 Rotational constants (GHZ):         166.8787705          18.6196279          16.7506600
 Basis read from chk: "sih2o.chk" (5D, 7F)
 There are    45 symmetry adapted cartesian basis functions of A1  symmetry.
 There are    10 symmetry adapted cartesian basis functions of A2  symmetry.
 There are    21 symmetry adapted cartesian basis functions of B1  symmetry.
 There are    28 symmetry adapted cartesian basis functions of B2  symmetry.
 There are    38 symmetry adapted basis functions of A1  symmetry.
 There are    10 symmetry adapted basis functions of A2  symmetry.
 There are    19 symmetry adapted basis functions of B1  symmetry.
 There are    25 symmetry adapted basis functions of B2  symmetry.
    92 basis functions,   157 primitive gaussians,   104 cartesian basis functions
    12 alpha electrons       12 beta electrons
       nuclear repulsion energy        52.4573198600 Hartrees.
 NAtoms=    4 NActive=    4 NUniq=    3 SFac= 1.78D+00 NAtFMM=   60 NAOKFM=F Big=F
 Integral buffers will be    131072 words long.
 Raffenetti 2 integral format.
 Two-electron integral symmetry is turned on.
 One-electron integrals computed using PRISM.
 NBasis=    92 RedAO= T EigKep=  5.47D-03  NBF=    38    10    19    25
 NBsUse=    92 1.00D-06 EigRej= -1.00D+00 NBFU=    38    10    19    25
 Initial guess from the checkpoint file:  "sih2o.chk"
 B after Tr=    -0.000000   -0.000000    0.000000
         Rot=    1.000000   -0.000000    0.000000    0.000000 Ang=   0.00 deg.
 Initial guess orbital symmetries:
       Occupied  (A1) (A1) (A1) (B1) (B2) (A1) (A1) (A1) (B2) (A1)
                 (B1) (B2)
       Virtual   (B1) (A1) (A1) (A1) (B2) (B2) (B1) (A1) (B2) (A1)
                 (A2) (B1) (A1) (B2) (B1) (A1) (A1) (B2) (B2) (A2)
                 (B1) (A1) (B2) (A1) (B1) (A1) (A1) (B2) (A2) (A1)
                 (B1) (B2) (A1) (B1) (B2) (A1) (A2) (B2) (A1) (B1)
                 (B2) (A1) (B1) (B2) (A1) (A2) (A1) (B1) (A1) (B2)
                 (A2) (B2) (A1) (A1) (B1) (B1) (A2) (B2) (A1) (B1)
                 (B2) (A2) (A1) (B2) (B1) (B2) (A1) (B1) (A2) (A1)
                 (B2) (A1) (B2) (A1) (A2) (A1) (B1) (B2) (A1) (A1)
 Keep R1 ints in memory in symmetry-blocked form, NReq=12887837.
 Requested convergence on RMS density matrix=1.00D-08 within 128 cycles.
 Requested convergence on MAX density matrix=1.00D-06.
 Requested convergence on             energy=1.00D-06.
 No special actions if energy rises.
 SCF Done:  E(RB3LYP) =  -365.978114624     A.U. after    1 cycles
            NFock=  1  Conv=0.17D-08     -V/T= 2.0012
 DoSCS=F DFT=T ScalE2(SS,OS)=  1.000000  1.000000
 Range of M.O.s used for correlation:     1    92
 NBasis=    92 NAE=    12 NBE=    12 NFC=     0 NFV=     0
 NROrb=     92 NOA=    12 NOB=    12 NVA=    80 NVB=    80
 Symmetrizing basis deriv contribution to polar:
 IMax=3 JMax=2 DiffMx= 0.00D+00
 G2DrvN: will do     5 centers at a time, making    1 passes.
 Calling FoFCou, ICntrl=  3107 FMM=F I1Cent=   0 AccDes= 0.00D+00.
 End of G2Drv F.D. properties file   721 does not exist.
 End of G2Drv F.D. properties file   722 does not exist.
 End of G2Drv F.D. properties file   788 does not exist.
          IDoAtm=1111
          Differentiating once with respect to electric field.
                with respect to dipole field.
          Differentiating once with respect to nuclear coordinates.
 Keep R1 ints in memory in symmetry-blocked form, NReq=12882497.
          There are    12 degrees of freedom in the 1st order CPHF.  IDoFFX=4 NUNeed=    12.
     12 vectors produced by pass  0 Test12= 8.00D-15 8.33D-09 XBig12= 3.97D+01 4.52D+00.
 AX will form    12 AO Fock derivatives at one time.
     12 vectors produced by pass  1 Test12= 8.00D-15 8.33D-09 XBig12= 1.26D+01 1.10D+00.
     12 vectors produced by pass  2 Test12= 8.00D-15 8.33D-09 XBig12= 2.96D-01 2.34D-01.
     12 vectors produced by pass  3 Test12= 8.00D-15 8.33D-09 XBig12= 4.49D-03 2.10D-02.
     12 vectors produced by pass  4 Test12= 8.00D-15 8.33D-09 XBig12= 3.98D-05 2.06D-03.
      9 vectors produced by pass  5 Test12= 8.00D-15 8.33D-09 XBig12= 1.37D-07 1.25D-04.
      4 vectors produced by pass  6 Test12= 8.00D-15 8.33D-09 XBig12= 1.42D-10 3.72D-06.
      1 vectors produced by pass  7 Test12= 8.00D-15 8.33D-09 XBig12= 1.08D-13 6.91D-08.
 InvSVY:  IOpt=1 It=  1 EMax= 2.36D-16
 Solved reduced A of dimension    74 with    12 vectors.
 Isotropic polarizability for W=    0.000000       26.41 Bohr**3.
 End of Minotr F.D. properties file   721 does not exist.
 End of Minotr F.D. properties file   722 does not exist.
 End of Minotr F.D. properties file   788 does not exist.

 **********************************************************************

            Population analysis using the SCF Density.

 **********************************************************************

 Orbital symmetries:
       Occupied  (A1) (A1) (A1) (B1) (B2) (A1) (A1) (A1) (B2) (A1)
                 (B1) (B2)
       Virtual   (B1) (A1) (A1) (A1) (B2) (B2) (B1) (A1) (B2) (A1)
                 (A2) (B1) (A1) (B2) (B1) (A1) (A1) (B2) (B2) (A2)
                 (B1) (A1) (B2) (A1) (B1) (A1) (A1) (B2) (A2) (A1)
                 (B1) (B2) (A1) (B1) (B2) (A1) (A2) (B2) (A1) (B1)
                 (B2) (A1) (B1) (B2) (A1) (A2) (A1) (B1) (A1) (B2)
                 (A2) (B2) (A1) (A1) (B1) (B1) (A2) (B2) (A1) (B1)
                 (B2) (A2) (A1) (B2) (B1) (B2) (A1) (B1) (A2) (A1)
                 (B2) (A1) (B2) (A1) (A2) (A1) (B1) (B2) (A1) (A1)
 The electronic state is 1-A1.
 Alpha  occ. eigenvalues --  -66.13109 -19.09438  -5.31541  -3.67823  -3.67047
 Alpha  occ. eigenvalues --   -3.66921  -0.93164  -0.53194  -0.40414  -0.36114
 Alpha  occ. eigenvalues --   -0.32832  -0.29624
 Alpha virt. eigenvalues --   -0.09036  -0.01678   0.02068   0.08601   0.09592
 Alpha virt. eigenvalues --    0.10002   0.13955   0.23764   0.26220   0.33903
 Alpha virt. eigenvalues --    0.36667   0.39074   0.39353   0.49857   0.52717
 Alpha virt. eigenvalues --    0.57165   0.60972   0.63414   0.80874   0.86040
 Alpha virt. eigenvalues --    0.87005   0.89101   1.02235   1.03338   1.04556
 Alpha virt. eigenvalues --    1.10819   1.24075   1.34734   1.44017   1.49593
 Alpha virt. eigenvalues --    1.50403   1.58093   1.58923   1.72861   1.74843
 Alpha virt. eigenvalues --    1.86683   1.88742   1.89402   2.05130   2.09757
 Alpha virt. eigenvalues --    2.18801   2.24980   2.52637   2.59106   2.83850
 Alpha virt. eigenvalues --    3.03413   3.12651   3.17406   3.19777   3.53103
 Alpha virt. eigenvalues --    3.74602   3.79952   3.81244   3.83589   3.84707
 Alpha virt. eigenvalues --    3.98889   3.99973   4.01457   4.05881   4.06888
 Alpha virt. eigenvalues --    4.11726   4.19360   4.24199   4.25809   4.37046
 Alpha virt. eigenvalues --    4.41854   4.45157   4.46442   4.53158   4.63015
 Alpha virt. eigenvalues --    4.92566   4.93707   5.06706   5.10626   6.08313
 Alpha virt. eigenvalues --    6.09254   6.43076   6.50611   6.78998  15.96109
          Condensed to atoms (all electrons):
               1          2          3          4
     1  Si  11.854396   0.572502   0.332188   0.332188
     2  O    0.572502   8.142312  -0.032913  -0.032913
     3  H    0.332188  -0.032913   0.906388  -0.075795
     4  H    0.332188  -0.032913  -0.075795   0.906388
 Mulliken charges:
               1
     1  Si   0.908726
     2  O   -0.648989
     3  H   -0.129869
     4  H   -0.129869
 Sum of Mulliken charges =   0.00000
 Mulliken charges with hydrogens summed into heavy atoms:
               1
     1  Si   0.648989
     2  O   -0.648989
 APT charges:
               1
     1  Si   1.135343
     2  O   -0.717362
     3  H   -0.208990
     4  H   -0.208990
 Sum of APT charges =  -0.00000
 APT charges with hydrogens summed into heavy atoms:
               1
     1  Si   0.717362
     2  O   -0.717362
 Electronic spatial extent (au):  <R**2>=            108.8377
 Charge=             -0.0000 electrons
 Dipole moment (field-independent basis, Debye):
    X=              0.0000    Y=             -0.0000    Z=              3.7849  Tot=              3.7849
 Quadrupole moment (field-independent basis, Debye-Ang):
   XX=            -16.8902   YY=            -19.4393   ZZ=            -22.4427
   XY=             -0.0000   XZ=              0.0000   YZ=             -0.0000
 Traceless Quadrupole moment (field-independent basis, Debye-Ang):
   XX=              2.7006   YY=              0.1514   ZZ=             -2.8520
   XY=             -0.0000   XZ=              0.0000   YZ=             -0.0000
 Octapole moment (field-independent basis, Debye-Ang**2):
  XXX=              0.0000  YYY=              0.0000  ZZZ=              0.7650  XYY=              0.0000
  XXY=             -0.0000  XXZ=              0.3600  XZZ=              0.0000  YZZ=              0.0000
  YYZ=             -1.5058  XYZ=             -0.0000
 Hexadecapole moment (field-independent basis, Debye-Ang**3):
 XXXX=            -19.4437 YYYY=            -43.6227 ZZZZ=           -104.1213 XXXY=             -0.0000
 XXXZ=              0.0000 YYYX=             -0.0000 YYYZ=             -0.0000 ZZZX=              0.0000
 ZZZY=              0.0000 XXYY=            -10.7213 XXZZ=            -19.5937 YYZZ=            -25.4979
 XXYZ=              0.0000 YYXZ=              0.0000 ZZXY=             -0.0000
 N-N= 5.245731985998D+01 E-N=-9.761138145390D+02  KE= 3.655216178939D+02
 Symmetry A1   KE= 3.066207722715D+02
 Symmetry A2   KE= 1.576368551191D-33
 Symmetry B1   KE= 2.834657741661D+01
 Symmetry B2   KE= 3.055426820578D+01
  Exact polarizability:  18.406   0.000  27.053  -0.000  -0.000  33.782
 Approx polarizability:  25.731   0.000  33.825  -0.000  -0.000  54.089
 Calling FoFJK, ICntrl=    100127 FMM=F ISym2X=1 I1Cent= 0 IOpClX= 0 NMat=1 NMatS=1 NMatT=0.
 Full mass-weighted force constant matrix:
 Low frequencies ---  -26.4276   -8.9210   -3.9628   -0.0022    0.0023    0.0028
 Low frequencies ---  691.3145  702.3252 1016.7486
 Diagonal vibrational polarizability:
        3.8246847       4.7513620       2.9635946
 Harmonic frequencies (cm**-1), IR intensities (KM/Mole), Raman scattering
 activities (A**4/AMU), depolarization ratios for plane and unpolarized
 incident light, reduced masses (AMU), force constants (mDyne/A),
 and normal coordinates:
                      1                      2                      3
                     B2                     B1                     A1
 Frequencies --    691.3145               702.3252              1016.7486
 Red. masses --      1.2637                 1.2090                 1.0620
 Frc consts  --      0.3558                 0.3514                 0.6469
 IR Inten    --     70.3277                70.1034                47.0237
  Atom  AN      X      Y      Z        X      Y      Z        X      Y      Z
     1  14    -0.00   0.07  -0.00    -0.08  -0.00   0.00     0.00  -0.00  -0.01
     2   8     0.00  -0.09  -0.00     0.05   0.00   0.00    -0.00   0.00  -0.06
     3   1     0.00  -0.34   0.62     0.70   0.00  -0.00    -0.00  -0.39   0.59
     4   1     0.00  -0.34  -0.62     0.70   0.00   0.00    -0.00   0.39   0.59
                      4                      5                      6
                     A1                     A1                     B2
 Frequencies --   1231.7035              2222.1425              2239.6841
 Red. masses --     11.6602                 1.0326                 1.0569
 Frc consts  --     10.4224                 3.0043                 3.1235
 IR Inten    --     84.6437                43.6725               147.4854
  Atom  AN      X      Y      Z        X      Y      Z        X      Y      Z
     1  14     0.00  -0.00  -0.39    -0.00   0.00  -0.03     0.00  -0.04  -0.00
     2   8    -0.00   0.00   0.66     0.00  -0.00   0.00    -0.00   0.00   0.00
     3   1    -0.00  -0.42   0.17     0.00   0.59   0.38    -0.00   0.59   0.39
     4   1    -0.00   0.42   0.17     0.00  -0.59   0.38    -0.00   0.59  -0.39

 -------------------
 - Thermochemistry -
 -------------------
 Temperature   298.150 Kelvin.  Pressure   1.00000 Atm.
 Atom     1 has atomic number 14 and mass  27.97693
 Atom     2 has atomic number  8 and mass  15.99491
 Atom     3 has atomic number  1 and mass   1.00783
 Atom     4 has atomic number  1 and mass   1.00783
 Molecular mass:    45.98749 amu.
 Principal axes and moments of inertia in atomic units:
                           1         2         3
     Eigenvalues --    10.81468  96.92681 107.74150
           X            0.00000  -0.00000   1.00000
           Y            0.00000   1.00000  -0.00000
           Z            1.00000  -0.00000  -0.00000
 This molecule is an asymmetric top.
 Rotational symmetry number  2.
 Rotational temperatures (Kelvin)      8.00892     0.89360     0.80390
 Rotational constants (GHZ):         166.87877    18.61963    16.75066
 Zero-point vibrational energy      48472.2 (Joules/Mol)
                                   11.58513 (Kcal/Mol)
 Vibrational temperatures:    994.65  1010.49  1462.87  1772.15  3197.17
          (Kelvin)           3222.41
 
 Zero-point correction=                           0.018462 (Hartree/Particle)
 Thermal correction to Energy=                    0.021572
 Thermal correction to Enthalpy=                  0.022516
 Thermal correction to Gibbs Free Energy=        -0.004154
 Sum of electronic and zero-point Energies=           -365.959653
 Sum of electronic and thermal Energies=              -365.956542
 Sum of electronic and thermal Enthalpies=            -365.955598
 Sum of electronic and thermal Free Energies=         -365.982269
 
                     E (Thermal)             CV                S
                      KCal/Mol        Cal/Mol-Kelvin    Cal/Mol-Kelvin
 Total                   13.537              8.186             56.133
 Electronic               0.000              0.000              0.000
 Translational            0.889              2.981             37.403
 Rotational               0.889              2.981             17.986
 Vibrational             11.759              2.225              0.745
                       Q            Log10(Q)             Ln(Q)
 Total Bot       0.814156D+02          1.910707          4.399567
 Total V=0       0.252737D+11         10.402669         23.953032
 Vib (Bot)       0.349187D-08         -8.456942        -19.472829
 Vib (V=0)       0.108398D+01          0.035020          0.080636
 Electronic      0.100000D+01          0.000000          0.000000
 Translational   0.122578D+08          7.088413         16.321675
 Rotational      0.190211D+04          3.279236          7.550720
 ***** Axes restored to original set *****
 -------------------------------------------------------------------
 Center     Atomic                   Forces (Hartrees/Bohr)
 Number     Number              X              Y              Z
 -------------------------------------------------------------------
      1       14          -0.000000000    0.000000000    0.000118396
      2        8          -0.000000000   -0.000000000   -0.000073400
      3        1           0.000000000    0.000060345   -0.000022498
      4        1           0.000000000   -0.000060345   -0.000022498
 -------------------------------------------------------------------
 Cartesian Forces:  Max     0.000118396 RMS     0.000048046
 FormGI is forming the generalized inverse of G from B-inverse, IUseBI=4.

 GradGradGradGradGradGradGradGradGradGradGradGradGradGradGradGradGradGrad
 Berny optimization.
 Internal  Forces:  Max     0.000097804 RMS     0.000056731
 Search for a local minimum.
 Step number   1 out of a maximum of    2
 All quantities printed in internal units (Hartrees-Bohrs-Radians)
 Second derivative matrix not updated -- analytic derivatives used.
 The second derivative matrix:
                          R1        R2        R3        A1        A2
           R1           0.58418
           R2           0.00501   0.18323
           R3           0.00501   0.00100   0.18323
           A1           0.00488  -0.00149  -0.00210   0.07254
           A2           0.00488  -0.00210  -0.00149  -0.03886   0.07254
           A3          -0.00976   0.00359   0.00359  -0.03368  -0.03368
           D1           0.00000  -0.00000  -0.00000   0.00000  -0.00000
                          A3        D1
           A3           0.06737
           D1          -0.00000   0.05242
 ITU=  0
     Eigenvalues ---    0.05242   0.10027   0.11140   0.18223   0.18460
     Eigenvalues ---    0.58459
 Angle between quadratic step and forces=  25.20 degrees.
 Linear search not attempted -- first point.
 Iteration  1 RMS(Cart)=  0.00060312 RMS(Int)=  0.00000018
 Iteration  2 RMS(Cart)=  0.00000015 RMS(Int)=  0.00000000
 ClnCor:  largest displacement from symmetrization is 8.37D-12 for atom     1.
 Variable       Old X    -DE/DX   Delta X   Delta X   Delta X     New X
                                 (Linear)    (Quad)   (Total)
    R1        2.86932   0.00007   0.00000   0.00015   0.00015   2.86947
    R2        2.79688   0.00004   0.00000   0.00017   0.00017   2.79705
    R3        2.79688   0.00004   0.00000   0.00017   0.00017   2.79705
    A1        2.16574  -0.00005   0.00000  -0.00048  -0.00048   2.16525
    A2        2.16574  -0.00005   0.00000  -0.00048  -0.00048   2.16525
    A3        1.95171   0.00010   0.00000   0.00097   0.00097   1.95268
    D1        3.14159  -0.00000   0.00000  -0.00000   0.00000   3.14159
         Item               Value     Threshold  Converged?
 Maximum Force            0.000098     0.000450     YES
 RMS     Force            0.000057     0.000300     YES
 Maximum Displacement     0.000901     0.001800     YES
 RMS     Displacement     0.000603     0.001200     YES
 Predicted change in Energy=-8.291240D-08
 Optimization completed.
    -- Stationary point found.
                           ----------------------------
                           !   Optimized Parameters   !
                           ! (Angstroms and Degrees)  !
 --------------------------                            --------------------------
 ! Name  Definition              Value          Derivative Info.                !
 --------------------------------------------------------------------------------
 ! R1    R(1,2)                  1.5184         -DE/DX =    0.0001              !
 ! R2    R(1,3)                  1.48           -DE/DX =    0.0                 !
 ! R3    R(1,4)                  1.48           -DE/DX =    0.0                 !
 ! A1    A(2,1,3)              124.0877         -DE/DX =    0.0                 !
 ! A2    A(2,1,4)              124.0877         -DE/DX =    0.0                 !
 ! A3    A(3,1,4)              111.8246         -DE/DX =    0.0001              !
 ! D1    D(2,1,4,3)            180.0            -DE/DX =    0.0                 !
 --------------------------------------------------------------------------------
 GradGradGradGradGradGradGradGradGradGradGradGradGradGradGradGradGradGrad


 ----------------------------------------------------------------------

 Electric dipole moment (input orientation):
 (Debye = 10**-18 statcoulomb cm , SI units = C m)
                  (au)            (Debye)         (10**-30 SI)
   Tot        0.148908D+01      0.378487D+01      0.126250D+02
   x          0.000000D+00      0.000000D+00      0.000000D+00
   y          0.000000D+00      0.000000D+00      0.000000D+00
   z          0.148908D+01      0.378487D+01      0.126250D+02

 Dipole polarizability, Alpha (input orientation).
 (esu units = cm**3 , SI units = C**2 m**2 J**-1)
 Alpha(0;0):
               (au)            (10**-24 esu)      (10**-40 SI)
   iso        0.264136D+02      0.391410D+01      0.435502D+01
   aniso      0.133509D+02      0.197840D+01      0.220126D+01
   xx         0.184056D+02      0.272743D+01      0.303467D+01
   yx         0.000000D+00      0.000000D+00      0.000000D+00
   yy         0.270533D+02      0.400889D+01      0.446049D+01
   zx         0.000000D+00      0.000000D+00      0.000000D+00
   zy         0.000000D+00      0.000000D+00      0.000000D+00
   zz         0.337820D+02      0.500597D+01      0.556990D+01

 ----------------------------------------------------------------------

 Dipole orientation:
    14         -0.00000000          0.00000000          0.82581221
     8          0.00000000         -0.00000000         -2.04351204
     1         -0.00000000          2.31632424          2.39335514
     1          0.00000000         -2.31632424          2.39335514

 Electric dipole moment (dipole orientation):
 (Debye = 10**-18 statcoulomb cm , SI units = C m)
                  (au)            (Debye)         (10**-30 SI)
   Tot        0.148908D+01      0.378487D+01      0.126250D+02
   x          0.000000D+00      0.000000D+00      0.000000D+00
   y          0.000000D+00      0.000000D+00      0.000000D+00
   z          0.148908D+01      0.378487D+01      0.126250D+02

 Dipole polarizability, Alpha (dipole orientation).
 (esu units = cm**3 , SI units = C**2 m**2 J**-1)
 Alpha(0;0):
               (au)            (10**-24 esu)      (10**-40 SI)
   iso        0.264136D+02      0.391410D+01      0.435502D+01
   aniso      0.133509D+02      0.197840D+01      0.220126D+01
   xx         0.184056D+02      0.272743D+01      0.303467D+01
   yx         0.000000D+00      0.000000D+00      0.000000D+00
   yy         0.270533D+02      0.400889D+01      0.446049D+01
   zx         0.000000D+00      0.000000D+00      0.000000D+00
   zy         0.000000D+00      0.000000D+00      0.000000D+00
   zz         0.337820D+02      0.500597D+01      0.556990D+01

 ----------------------------------------------------------------------
 1\1\GINC-GAMBA\Freq\RB3LYP\Gen\H2O1Si1\IRIKURA\28-Sep-2023\0\\#N Geom=
 AllCheck Guess=TCheck SCRF=Check GenChk RB3LYP/ChkBas Freq\\silanone, 
 B3LYP/pcseg-2\\0,1\Si,0.,0.,0.437001\O,0.,0.,-1.08138\H,0.,1.225746,1.
 266509\H,0.,-1.225746,1.266509\\Version=ES64L-G16RevB.01\State=1-A1\HF
 =-365.9781146\RMSD=1.678e-09\RMSF=4.805e-05\ZeroPoint=0.0184621\Therma
 l=0.0215723\Dipole=0.,0.,1.4890806\DipoleDeriv=0.9346193,0.,0.,0.,1.30
 13305,0.,0.,0.,1.1700785,-0.6658131,0.,0.,0.,-0.7605193,0.,0.,0.,-0.72
 57531,-0.1344031,0.,0.,0.,-0.2704056,-0.0047796,0.,-0.033388,-0.222162
 7,-0.1344031,0.,0.,0.,-0.2704056,0.0047796,0.,0.033388,-0.2221627\Pola
 r=18.4055928,0.,27.053302,0.,0.,33.7819862\Quadrupole=2.0077948,0.1125
 914,-2.1203862,0.,0.,0.\PG=C02V [C2(O1Si1),SGV(H2)]\NImag=0\\0.0743091
 6,0.,0.31598373,0.,0.,0.71730254,-0.02623066,0.,0.,0.00925633,0.,-0.04
 224496,0.,0.,0.02704288,0.,0.,-0.56989174,0.,0.,0.58417881,-0.02403925
 ,0.,0.,0.00848717,0.,0.,0.00776272,0.,-0.13686938,-0.06487167,0.,0.007
 60104,-0.00121973,0.,0.13569542,0.,-0.06644030,-0.07370540,0.,-0.01161
 478,-0.00714353,0.,0.07207324,0.07401690,-0.02403925,0.,0.,0.00848717,
 0.,0.,0.00778936,0.,0.,0.00776272,0.,-0.13686938,0.06487167,0.,0.00760
 104,0.00121973,0.,-0.00642707,0.00598184,0.,0.13569542,0.,0.06644030,-
 0.07370540,0.,0.01161478,-0.00714353,0.,-0.00598184,0.00683203,0.,-0.0
 7207324,0.07401690\\0.,0.,-0.00011840,0.,0.,0.00007340,0.,-0.00006035,
 0.00002250,0.,0.00006035,0.00002250\\\@


 WE HAVE LEARNED THAT NOTHING IS SIMPLE AND
 RATIONAL EXCEPT WHAT WE OURSELVES HAVE INVENTED;
 THAT GOD THINKS IN TERMS NEITHER OF EUCLID OR RIEMANN; THAT SCIENCE HAS "EXPLAINED" NOTHING;
 THAT THE MORE WE KNOW THE MORE FANTASTIC THE WORLD BECOMES
 AND THE PROFOUNDER THE SURROUNDING DARKNESS.
   --  ALDOUS HUXLEY
 Job cpu time:       0 days  0 hours  1 minutes  3.5 seconds.
 Elapsed time:       0 days  0 hours  0 minutes 15.9 seconds.
 File lengths (MBytes):  RWF=     10 Int=      0 D2E=      0 Chk=      2 Scr=      1
 Normal termination of Gaussian 16 at Thu Sep 28 22:15:08 2023.
 AtFile(1): ccpvtz-f12.gbs
            -H     0
            S    3   1.00
                 82.6400000              0.0020060
                 12.4100000              0.0153430
                  2.8240000              0.0755790
            S    1   1.00
                  0.7977000              1.0000000
            S    1   1.00
                  0.2581000              1.0000000
            S    1   1.00
                  0.0898900              1.0000000
            P    1   1.00
                  1.5513000              1.0000000
            P    1   1.00
                  0.5580000              1.0000000
            P    1   1.00
                  0.2007000              1.0000000
            D    1   1.00
                  0.4648000              1.0000000
            ****
            -He     0
            S    4   1.00
                528.5000000              0.0009400
                 79.3100000              0.0072140
                 18.0500000              0.0359750
                  5.0850000              0.1277820
            S    1   1.00
                  1.6090000              1.0000000
            S    1   1.00
                  0.5363000              1.0000000
            S    1   1.00
                  0.1833000              1.0000000
            S    1   1.00
                  0.0481900              1.0000000
            P    1   1.00
                  3.7026000              1.0000000
            P    1   1.00
                  1.2284000              1.0000000
            P    1   1.00
                  0.4075000              1.0000000
            D    1   1.00
                  0.6525000              1.0000000
            ****
            -Li     0
            S    9   1.00
               6601.0000000              0.0001170
                989.7000000              0.0009110
                225.7000000              0.0047280
                 64.2900000              0.0191970
                 21.1800000              0.0630470
                  7.7240000              0.1632080
                  3.0030000              0.3148270
                  1.2120000              0.3939360
                  0.4930000              0.1969180
            S    9   1.00
               6601.0000000             -0.0000180
                989.7000000             -0.0001420
                225.7000000             -0.0007410
                 64.2900000             -0.0030200
                 21.1800000             -0.0101230
                  7.7240000             -0.0270940
                  3.0030000             -0.0573590
                  1.2120000             -0.0938950
                  0.4930000             -0.1210910
            S    1   1.00
                  0.0951500              1.0000000
            S    1   1.00
                  0.0479100              1.0000000
            S    1   1.00
                  0.0222000              1.0000000
            S    1   1.00
                  0.0064000              1.0000000
            P    2   1.00
                  6.2500000              0.0033880
                  1.3700000              0.0193160
            P    1   1.00
                  0.3672000              1.0000000
            P    1   1.00
                  0.1192000              1.0000000
            P    1   1.00
                  0.0447400              1.0000000
            P    1   1.00
                  0.0179500              1.0000000
            P    1   1.00
                  0.0075000              1.0000000
            D    1   1.00
                  0.2351180              1.0000000
            D    1   1.00
                  0.1194040              1.0000000
            D    1   1.00
                  0.0606390              1.0000000
            F    1   1.00
                  0.1637750              1.0000000
            F    1   1.00
                  0.0759100              1.0000000
            ****
            -Be     0
            S    9   1.00
              14630.0000000              0.0000920
               2191.0000000              0.0007130
                498.2000000              0.0037350
                140.9000000              0.0154680
                 45.8600000              0.0528740
                 16.4700000              0.1456940
                  6.3190000              0.3026810
                  2.5350000              0.4049360
                  1.0350000              0.2223870
            S    9   1.00
              14630.0000000             -0.0000170
               2191.0000000             -0.0001300
                498.2000000             -0.0006790
                140.9000000             -0.0028570
                 45.8600000             -0.0098130
                 16.4700000             -0.0286090
                  6.3190000             -0.0637600
                  2.5350000             -0.1172310
                  1.0350000             -0.1212020
            S    1   1.00
                  0.2528000              1.0000000
            S    1   1.00
                  0.1052000              1.0000000
            S    1   1.00
                  0.0426100              1.0000000
            S    1   1.00
                  0.0141000              1.0000000
            P    2   1.00
                 14.0300000              0.0040990
                  3.1680000              0.0256260
            P    1   1.00
                  0.9024000              1.0000000
            P    1   1.00
                  0.3036000              1.0000000
            P    1   1.00
                  0.1130000              1.0000000
            P    1   1.00
                  0.0428600              1.0000000
            P    1   1.00
                  0.0084000              1.0000000
            D    1   1.00
                  0.4670460              1.0000000
            D    1   1.00
                  0.2205970              1.0000000
            D    1   1.00
                  0.1041940              1.0000000
            F    1   1.00
                  0.3166400              1.0000000
            F    1   1.00
                  0.1457880              1.0000000
            ****
            -B     0
            S    9   1.00
              23870.0000000              0.0000880
               3575.0000000              0.0006870
                812.8000000              0.0036000
                229.7000000              0.0149490
                 74.6900000              0.0514350
                 26.8100000              0.1433020
                 10.3200000              0.3009350
                  4.1780000              0.4035260
                  1.7270000              0.2253400
            S    9   1.00
              23870.0000000             -0.0000180
               3575.0000000             -0.0001390
                812.8000000             -0.0007250
                229.7000000             -0.0030630
                 74.6900000             -0.0105810
                 26.8100000             -0.0313650
                 10.3200000             -0.0710120
                  4.1780000             -0.1321030
                  1.7270000             -0.1230720
            S    1   1.00
                  0.4704000              1.0000000
            S    1   1.00
                  0.1896000              1.0000000
            S    1   1.00
                  0.0739400              1.0000000
            S    1   1.00
                  0.0272100              1.0000000
            P    2   1.00
                 22.2600000              0.0050950
                  5.0580000              0.0332060
            P    1   1.00
                  1.4870000              1.0000000
            P    1   1.00
                  0.5071000              1.0000000
            P    1   1.00
                  0.1812000              1.0000000
            P    1   1.00
                  0.0646300              1.0000000
            P    1   1.00
                  0.0187800              1.0000000
            D    1   1.00
                  1.4403000              1.0000000
            D    1   1.00
                  0.5333000              1.0000000
            D    1   1.00
                  0.1975000              1.0000000
            F    1   1.00
                  0.8479000              1.0000000
            F    1   1.00
                  0.2484000              1.0000000
            ****
            -C     0
            S    9   1.00
              33980.0000000              0.0000910
               5089.0000000              0.0007040
               1157.0000000              0.0036930
                326.6000000              0.0153600
                106.1000000              0.0529290
                 38.1100000              0.1470430
                 14.7500000              0.3056310
                  6.0350000              0.3993450
                  2.5300000              0.2170510
            S    9   1.00
              33980.0000000             -0.0000190
               5089.0000000             -0.0001510
               1157.0000000             -0.0007850
                326.6000000             -0.0033240
                106.1000000             -0.0115120
                 38.1100000             -0.0341600
                 14.7500000             -0.0771730
                  6.0350000             -0.1414930
                  2.5300000             -0.1180190
            S    1   1.00
                  0.7355000              1.0000000
            S    1   1.00
                  0.2905000              1.0000000
            S    1   1.00
                  0.1111000              1.0000000
            S    1   1.00
                  0.0414500              1.0000000
            P    2   1.00
                 34.5100000              0.0053780
                  7.9150000              0.0361320
            P    1   1.00
                  2.3680000              1.0000000
            P    1   1.00
                  0.8132000              1.0000000
            P    1   1.00
                  0.2890000              1.0000000
            P    1   1.00
                  0.1007000              1.0000000
            P    1   1.00
                  0.0321800              1.0000000
            D    1   1.00
                  2.2805000              1.0000000
            D    1   1.00
                  0.7834000              1.0000000
            D    1   1.00
                  0.2691000              1.0000000
            F    1   1.00
                  1.0371000              1.0000000
            F    1   1.00
                  0.3459000              1.0000000
            ****
            -N     0
            S    9   1.00
              45840.0000000              0.0000920
               6868.0000000              0.0007170
               1563.0000000              0.0037490
                442.4000000              0.0155320
                144.3000000              0.0531460
                 52.1800000              0.1467870
                 20.3400000              0.3046630
                  8.3810000              0.3976840
                  3.5290000              0.2176410
            S    9   1.00
              45840.0000000             -0.0000200
               6868.0000000             -0.0001590
               1563.0000000             -0.0008240
                442.4000000             -0.0034780
                144.3000000             -0.0119660
                 52.1800000             -0.0353880
                 20.3400000             -0.0800770
                  8.3810000             -0.1467220
                  3.5290000             -0.1163600
            S    1   1.00
                  1.0540000              1.0000000
            S    1   1.00
                  0.4118000              1.0000000
            S    1   1.00
                  0.1552000              1.0000000
            S    1   1.00
                  0.0546400              1.0000000
            P    2   1.00
                 49.3300000              0.0055330
                 11.3700000              0.0379620
            P    1   1.00
                  3.4350000              1.0000000
            P    1   1.00
                  1.1820000              1.0000000
            P    1   1.00
                  0.4173000              1.0000000
            P    1   1.00
                  0.1428000              1.0000000
            P    1   1.00
                  0.0440200              1.0000000
            D    1   1.00
                  3.0521000              1.0000000
            D    1   1.00
                  1.0393000              1.0000000
            D    1   1.00
                  0.3539000              1.0000000
            F    1   1.00
[...]
 University), and the Gaussian 82(TM) system (copyright 1983,
 Carnegie Mellon University). Gaussian is a federally registered
 trademark of Gaussian, Inc.
  
 This software contains proprietary and confidential information,
 including trade secrets, belonging to Gaussian, Inc.
  
 This software is provided under written license and may be
 used, copied, transmitted, or stored only in accord with that
 written license.
  
 The following legend is applicable only to US Government
 contracts under FAR:
  
                    RESTRICTED RIGHTS LEGEND
  
 Use, reproduction and disclosure by the US Government is
 subject to restrictions as set forth in subparagraphs (a)
 and (c) of the Commercial Computer Software - Restricted
 Rights clause in FAR 52.227-19.
  
 Gaussian, Inc.
 340 Quinnipiac St., Bldg. 40, Wallingford CT 06492
  
  
 ---------------------------------------------------------------
 Warning -- This program may not be used in any manner that
 competes with the business of Gaussian, Inc. or will provide
 assistance to any competitor of Gaussian, Inc.  The licensee
 of this program is prohibited from giving any competitor of
 Gaussian, Inc. access to this program.  By using this program,
 the user acknowledges that Gaussian, Inc. is engaged in the
 business of creating and licensing software in the field of
 computational chemistry and represents and warrants to the
 licensee that it is not a competitor of Gaussian, Inc. and that
 it will not use this program in any manner prohibited above.
 ---------------------------------------------------------------
  

 Cite this work as:
 Gaussian 16, Revision B.01,
 M. J. Frisch, G. W. Trucks, H. B. Schlegel, G. E. Scuseria, 
 M. A. Robb, J. R. Cheeseman, G. Scalmani, V. Barone, 
 G. A. Petersson, H. Nakatsuji, X. Li, M. Caricato, A. V. Marenich, 
 J. Bloino, B. G. Janesko, R. Gomperts, B. Mennucci, H. P. Hratchian, 
 J. V. Ortiz, A. F. Izmaylov, J. L. Sonnenberg, D. Williams-Young, 
 F. Ding, F. Lipparini, F. Egidi, J. Goings, B. Peng, A. Petrone, 
 T. Henderson, D. Ranasinghe, V. G. Zakrzewski, J. Gao, N. Rega, 
 G. Zheng, W. Liang, M. Hada, M. Ehara, K. Toyota, R. Fukuda, 
 J. Hasegawa, M. Ishida, T. Nakajima, Y. Honda, O. Kitao, H. Nakai, 
 T. Vreven, K. Throssell, J. A. Montgomery, Jr., J. E. Peralta, 
 F. Ogliaro, M. J. Bearpark, J. J. Heyd, E. N. Brothers, K. N. Kudin, 
 V. N. Staroverov, T. A. Keith, R. Kobayashi, J. Normand, 
 K. Raghavachari, A. P. Rendell, J. C. Burant, S. S. Iyengar, 
 J. Tomasi, M. Cossi, J. M. Millam, M. Klene, C. Adamo, R. Cammi, 
 J. W. Ochterski, R. L. Martin, K. Morokuma, O. Farkas, 
 J. B. Foresman, and D. J. Fox, Gaussian, Inc., Wallingford CT, 2016.
 
 ******************************************
 Gaussian 16:  ES64L-G16RevB.01 20-Dec-2017
                28-Sep-2023 
 ******************************************
 %chk=sih2o.chk
 %mem=500mw
 %nprocs=4
 Will use up to    4 processors via shared memory.
 ---------------------------------
 # rohf/gen geom=check guess=check
 ---------------------------------
 1/29=2,38=1,172=1/1;
 2/12=2,40=1/2;
 3/5=7,11=2,14=-4,25=1,30=1,116=101/1,2,3;
 4/5=1/1;
 5/5=2,38=6/2;
 6/7=2,8=2,9=2,10=2,28=1/1;
 99/5=1,9=1/99;
 --------------------------
 silanone, ROHF/cc-pVTZ-F12
 --------------------------
 Structure from the checkpoint file:  "sih2o.chk"
 Charge =  0 Multiplicity = 1
 Redundant internal coordinates found in file.  (old form).
 Si,0,0.,0.,0.437001
 O,0,0.,0.,-1.08138
 H,0,0.,1.225746,1.266509
 H,0,0.,-1.225746,1.266509
 Recover connectivity data from disk.
                           ----------------------------
                           !    Current Parameters    !
                           ! (Angstroms and Degrees)  !
 --------------------------                            --------------------------
 ! Name  Definition              Value                                          !
 --------------------------------------------------------------------------------
 ! R1    R(1,2)                  1.5184                                         !
 ! R2    R(1,3)                  1.48                                           !
 ! R3    R(1,4)                  1.48                                           !
 ! A1    A(2,1,3)              124.0877                                         !
 ! A2    A(2,1,4)              124.0877                                         !
 ! A3    A(3,1,4)              111.8246                                         !
 ! D1    D(2,1,4,3)            180.0                                            !
 --------------------------------------------------------------------------------
                          Input orientation:                          
 ---------------------------------------------------------------------
 Center     Atomic      Atomic             Coordinates (Angstroms)
 Number     Number       Type             X           Y           Z
 ---------------------------------------------------------------------
      1         14           0       -0.000000    0.000000    0.437001
      2          8           0        0.000000   -0.000000   -1.081380
      3          1           0       -0.000000    1.225746    1.266509
      4          1           0       -0.000000   -1.225746    1.266509
 ---------------------------------------------------------------------
                    Distance matrix (angstroms):
                    1          2          3          4
     1  Si   0.000000
     2  O    1.518381   0.000000
     3  H    1.480046   2.648591   0.000000
     4  H    1.480046   2.648591   2.451492   0.000000
 Stoichiometry    H2OSi
 Framework group  C2V[C2(OSi),SGV(H2)]
 Deg. of freedom     3
 Full point group                 C2V     NOp   4
 Largest Abelian subgroup         C2V     NOp   4
 Largest concise Abelian subgroup C2      NOp   2
                         Standard orientation:                         
 ---------------------------------------------------------------------
 Center     Atomic      Atomic             Coordinates (Angstroms)
 Number     Number       Type             X           Y           Z
 ---------------------------------------------------------------------
      1         14           0       -0.000000   -0.000000    0.437001
      2          8           0        0.000000    0.000000   -1.081380
      3          1           0       -0.000000    1.225746    1.266509
      4          1           0       -0.000000   -1.225746    1.266509
 ---------------------------------------------------------------------
 Rotational constants (GHZ):         166.8787705          18.6196279          16.7506600
 General basis read from cards:  (5D, 7F)
 There are    73 symmetry adapted cartesian basis functions of A1  symmetry.
 There are    16 symmetry adapted cartesian basis functions of A2  symmetry.
 There are    37 symmetry adapted cartesian basis functions of B1  symmetry.
 There are    46 symmetry adapted cartesian basis functions of B2  symmetry.
 There are    61 symmetry adapted basis functions of A1  symmetry.
 There are    16 symmetry adapted basis functions of A2  symmetry.
 There are    33 symmetry adapted basis functions of B1  symmetry.
 There are    41 symmetry adapted basis functions of B2  symmetry.
   151 basis functions,   251 primitive gaussians,   172 cartesian basis functions
    12 alpha electrons       12 beta electrons
       nuclear repulsion energy        52.4573198600 Hartrees.
 NAtoms=    4 NActive=    4 NUniq=    3 SFac= 1.78D+00 NAtFMM=   60 NAOKFM=F Big=F
 Integral buffers will be    131072 words long.
 Raffenetti 2 integral format.
 Two-electron integral symmetry is turned on.
 One-electron integrals computed using PRISM.
 NBasis=   151 RedAO= T EigKep=  1.94D-04  NBF=    61    16    33    41
 NBsUse=   151 1.00D-06 EigRej= -1.00D+00 NBFU=    61    16    33    41
 Initial guess from the checkpoint file:  "sih2o.chk"
 B after Tr=     0.000000   -0.000000   -0.000000
         Rot=    1.000000    0.000000   -0.000000   -0.000000 Ang=   0.00 deg.
 Initial guess orbital symmetries:
       Occupied  (A1) (A1) (A1) (B1) (B2) (A1) (A1) (A1) (B2) (A1)
                 (B1) (B2)
       Virtual   (B1) (A1) (A1) (A1) (B2) (B2) (B1) (A1) (B2) (A1)
                 (A2) (B1) (A1) (B2) (B1) (A1) (A1) (B2) (B2) (A2)
                 (B1) (A1) (B2) (A1) (B1) (A1) (A1) (B2) (A2) (A1)
                 (B1) (B2) (A1) (B1) (B2) (A1) (A2) (B2) (A1) (B1)
                 (B2) (A1) (B1) (B2) (A1) (A2) (A1) (B1) (A1) (B2)
                 (A2) (B2) (A1) (A1) (B1) (B1) (A2) (B2) (A1) (B1)
                 (B2) (A2) (A1) (B2) (B1) (B2) (A1) (B1) (A2) (A1)
                 (B2) (A1) (B2) (A1) (A2) (A1) (B1) (B2) (A1) (A1)
                 (A1) (A1) (A1) (A1) (A1) (A1) (A1) (A1) (A1) (A1)
                 (A1) (A1) (A1) (A1) (A1) (A1) (A1) (A1) (A1) (A1)
                 (A1) (A1) (A1) (A2) (A2) (A2) (A2) (A2) (A2) (B1)
                 (B1) (B1) (B1) (B1) (B1) (B1) (B1) (B1) (B1) (B1)
                 (B1) (B1) (B1) (B2) (B2) (B2) (B2) (B2) (B2) (B2)
                 (B2) (B2) (B2) (B2) (B2) (B2) (B2) (B2) (B2)
 Keep R1 and R2 ints in memory in symmetry-blocked form, NReq=82699581.
 Requested convergence on RMS density matrix=1.00D-08 within 128 cycles.
 Requested convergence on MAX density matrix=1.00D-06.
 Requested convergence on             energy=1.00D-06.
 No special actions if energy rises.
 SCF Done:  E(ROHF) =  -364.997673847     A.U. after   11 cycles
            NFock= 11  Conv=0.35D-08     -V/T= 2.0004
 <Sx>= 0.0000 <Sy>= 0.0000 <Sz>= 0.0000 <S**2>= 0.0000 S= 0.0000
 <L.S>=  0.00000000000    
 Annihilation of the first spin contaminant:
 S**2 before annihilation     0.0000,   after    -0.0000

 **********************************************************************

            Population analysis using the SCF Density.

 **********************************************************************

 Orbital symmetries:
       Occupied  (A1) (A1) (A1) (B1) (B2) (A1) (A1) (A1) (B2) (A1)
                 (B1) (B2)
       Virtual   (B1) (A1) (B2) (A1) (B1) (A1) (A1) (A1) (B2) (B1)
                 (B2) (B2) (A1) (A2) (B1) (A1) (A1) (A1) (B2) (B1)
                 (A1) (B2) (A2) (B1) (A1) (B2) (A1) (B2) (A1) (A1)
                 (B2) (B1) (A2) (A1) (B1) (A2) (B1) (A1) (B2) (B1)
                 (B1) (B2) (A1) (A1) (B2) (B2) (A1) (A1) (A2) (A1)
                 (A1) (A2) (B2) (B1) (A2) (B1) (A1) (B2) (A1) (A1)
                 (B1) (B2) (B2) (A1) (B2) (B1) (A2) (A1) (B2) (A1)
                 (B1) (A2) (B2) (B1) (A1) (A1) (B2) (B1) (A2) (A1)
                 (B1) (B2) (A1) (B1) (B2) (A2) (B2) (A1) (B2) (A1)
                 (B1) (A1) (B2) (B1) (A2) (A1) (A1) (B1) (A1) (B2)
                 (A1) (B2) (A1) (A2) (B1) (A1) (B2) (B2) (A1) (B1)
                 (B2) (A2) (B1) (A1) (B2) (A1) (A1) (B2) (B1) (A2)
                 (B1) (A1) (B2) (B2) (A1) (A1) (A2) (A1) (A1) (B1)
                 (B2) (A1) (B1) (B2) (A1) (B1) (B2) (A1) (A1)
 The electronic state is 1-A1.
 Alpha  occ. eigenvalues --  -68.82493 -20.50971  -6.17146  -4.27996  -4.27622
 Alpha  occ. eigenvalues --   -4.27574  -1.24540  -0.70306  -0.55257  -0.52400
 Alpha  occ. eigenvalues --   -0.45477  -0.44424
 Alpha virt. eigenvalues --    0.01492   0.03187   0.04655   0.05509   0.06837
 Alpha virt. eigenvalues --    0.12119   0.13141   0.17628   0.18547   0.19503
 Alpha virt. eigenvalues --    0.22279   0.24498   0.25637   0.27408   0.28193
 Alpha virt. eigenvalues --    0.31832   0.35408   0.37902   0.40376   0.41628
 Alpha virt. eigenvalues --    0.48310   0.52460   0.56106   0.57144   0.64959
 Alpha virt. eigenvalues --    0.69170   0.71701   0.71999   0.76335   0.79307
 Alpha virt. eigenvalues --    0.79433   0.80246   0.89608   0.92437   0.93054
 Alpha virt. eigenvalues --    0.95730   0.95808   0.96327   0.96785   0.97575
 Alpha virt. eigenvalues --    1.04962   1.05029   1.06113   1.13402   1.18795
 Alpha virt. eigenvalues --    1.22998   1.30362   1.35461   1.36098   1.48833
 Alpha virt. eigenvalues --    1.64202   1.64893   1.65154   1.67972   1.76285
 Alpha virt. eigenvalues --    1.78024   1.78600   1.83932   1.85941   1.90812
 Alpha virt. eigenvalues --    1.93102   1.93631   1.95541   1.99857   2.05909
 Alpha virt. eigenvalues --    2.10753   2.11925   2.14098   2.19430   2.33449
 Alpha virt. eigenvalues --    2.37486   2.38327   2.39506   2.40921   2.40921
 Alpha virt. eigenvalues --    2.56553   2.58240   2.66070   2.70121   2.71307
 Alpha virt. eigenvalues --    2.74075   2.82597   2.83967   2.88809   2.90304
 Alpha virt. eigenvalues --    3.00854   3.04827   3.04879   3.12863   3.16150
 Alpha virt. eigenvalues --    3.44175   3.55387   3.81134   3.92991   3.94667
 Alpha virt. eigenvalues --    4.02993   4.05231   4.24762   4.32514   4.36020
 Alpha virt. eigenvalues --    4.54446   4.65263   5.18181   5.35039   5.35611
 Alpha virt. eigenvalues --    5.52313   5.53616   6.06835   6.12401   6.95035
 Alpha virt. eigenvalues --    6.97166   7.02962   7.05404   7.08065   7.12341
 Alpha virt. eigenvalues --    7.14843   8.10119   8.17164   9.64769   9.73191
 Alpha virt. eigenvalues --    9.77186   9.79020   9.85388   9.98018  10.05952
 Alpha virt. eigenvalues --   10.45668  11.26103  11.26161  11.36879  11.49435
 Alpha virt. eigenvalues --   11.58091  12.38286  18.64589  18.88061  18.92380
 Alpha virt. eigenvalues --   37.34129  37.50526  38.15860  41.93905
          Condensed to atoms (all electrons):
               1          2          3          4
     1  Si  11.507523   0.528554   0.403218   0.403218
     2  O    0.528554   8.342840  -0.026385  -0.026385
     3  H    0.403218  -0.026385   0.835638  -0.043041
     4  H    0.403218  -0.026385  -0.043041   0.835638
          Atomic-Atomic Spin Densities.
               1          2          3          4
     1  Si   0.000000   0.000000   0.000000   0.000000
     2  O    0.000000   0.000000   0.000000   0.000000
     3  H    0.000000   0.000000   0.000000   0.000000
     4  H    0.000000   0.000000   0.000000   0.000000
 Mulliken charges and spin densities:
               1          2
     1  Si   1.157486   0.000000
     2  O   -0.818625   0.000000
     3  H   -0.169431   0.000000
     4  H   -0.169431   0.000000
 Sum of Mulliken charges =  -0.00000   0.00000
 Mulliken charges and spin densities with hydrogens summed into heavy atoms:
               1          2
     1  Si   0.818625   0.000000
     2  O   -0.818625   0.000000
 Electronic spatial extent (au):  <R**2>=            108.6752
 Charge=              0.0000 electrons
 Dipole moment (field-independent basis, Debye):
    X=              0.0000    Y=              0.0000    Z=              4.4749  Tot=              4.4749
 Quadrupole moment (field-independent basis, Debye-Ang):
   XX=            -16.5379   YY=            -19.1763   ZZ=            -22.8393
   XY=             -0.0000   XZ=              0.0000   YZ=              0.0000
 Traceless Quadrupole moment (field-independent basis, Debye-Ang):
   XX=              2.9800   YY=              0.3415   ZZ=             -3.3215
   XY=             -0.0000   XZ=              0.0000   YZ=              0.0000
 Octapole moment (field-independent basis, Debye-Ang**2):
  XXX=              0.0000  YYY=              0.0000  ZZZ=              1.7131  XYY=              0.0000
  XXY=             -0.0000  XXZ=              0.9854  XZZ=              0.0000  YZZ=             -0.0000
  YYZ=             -1.1712  XYZ=             -0.0000
 Hexadecapole moment (field-independent basis, Debye-Ang**3):
 XXXX=            -18.1302 YYYY=            -41.1450 ZZZZ=           -103.8324 XXXY=             -0.0000
 XXXZ=              0.0000 YYYX=             -0.0000 YYYZ=              0.0000 ZZZX=              0.0000
 ZZZY=             -0.0000 XXYY=            -10.3370 XXZZ=            -19.3751 YYZZ=            -24.7555
 XXYZ=             -0.0000 YYXZ=              0.0000 ZZXY=             -0.0000
 N-N= 5.245731985998D+01 E-N=-9.752521430772D+02  KE= 3.648662357179D+02
 Symmetry A1   KE= 3.065976544943D+02
 Symmetry A2   KE= 1.342299142089D-32
 Symmetry B1   KE= 2.802285557523D+01
 Symmetry B2   KE= 3.024572564844D+01
 Symmetry A1   SP= 0.000000000000D+00
 Symmetry A2   SP= 0.000000000000D+00
 Symmetry B1   SP= 0.000000000000D+00
 Symmetry B2   SP= 0.000000000000D+00
                          Isotropic Fermi Contact Couplings
        Atom                 a.u.       MegaHertz       Gauss      10(-4) cm-1
     1  Si(29)             0.00000      -0.00000      -0.00000      -0.00000
     2  O(17)              0.00000      -0.00000      -0.00000      -0.00000
     3  H(1)               0.00000       0.00000       0.00000       0.00000
     4  H(1)               0.00000       0.00000       0.00000       0.00000
 --------------------------------------------------------
       Center         ----  Spin Dipole Couplings  ----
                      3XX-RR        3YY-RR        3ZZ-RR
 --------------------------------------------------------
     1   Atom        0.000000      0.000000      0.000000
     2   Atom        0.000000      0.000000      0.000000
     3   Atom        0.000000      0.000000      0.000000
     4   Atom        0.000000      0.000000      0.000000
 --------------------------------------------------------
                        XY            XZ            YZ
 --------------------------------------------------------
     1   Atom        0.000000      0.000000      0.000000
     2   Atom        0.000000      0.000000      0.000000
     3   Atom        0.000000      0.000000      0.000000
     4   Atom        0.000000      0.000000      0.000000
 --------------------------------------------------------


 ---------------------------------------------------------------------------------
              Anisotropic Spin Dipole Couplings in Principal Axis System
 ---------------------------------------------------------------------------------

       Atom             a.u.   MegaHertz   Gauss  10(-4) cm-1        Axes

              Baa     0.0000    -0.000    -0.000    -0.000  1.0000  0.0000  0.0000
     1 Si(29) Bbb     0.0000    -0.000    -0.000    -0.000 -0.0000  1.0000  0.0000
              Bcc     0.0000    -0.000    -0.000    -0.000  0.0000  0.0000  1.0000
 
              Baa     0.0000    -0.000    -0.000    -0.000  1.0000  0.0000  0.0000
     2 O(17)  Bbb     0.0000    -0.000    -0.000    -0.000 -0.0000  1.0000  0.0000
              Bcc     0.0000    -0.000    -0.000    -0.000  0.0000  0.0000  1.0000
 
              Baa     0.0000     0.000     0.000     0.000  1.0000  0.0000  0.0000
     3 H(1)   Bbb     0.0000     0.000     0.000     0.000 -0.0000  1.0000  0.0000
              Bcc     0.0000     0.000     0.000     0.000  0.0000  0.0000  1.0000
 
              Baa     0.0000     0.000     0.000     0.000  1.0000  0.0000  0.0000
     4 H(1)   Bbb     0.0000     0.000     0.000     0.000 -0.0000  1.0000  0.0000
              Bcc     0.0000     0.000     0.000     0.000  0.0000  0.0000  1.0000
 

 ---------------------------------------------------------------------------------

 1\1\GINC-GAMBA\SP\ROHF\Gen\H2O1Si1\IRIKURA\28-Sep-2023\0\\# rohf/gen g
 eom=check guess=check\\silanone, ROHF/cc-pVTZ-F12\\0,1\Si,0,0.,0.,0.43
 7001\O,0,0.,0.,-1.08138\H,0,0.,1.225746,1.266509\H,0,0.,-1.225746,1.26
 6509\\Version=ES64L-G16RevB.01\State=1-A1\HF=-364.9976738\RMSD=3.466e-
 09\Dipole=0.,0.,1.7605503\Quadrupole=2.2155352,0.2539077,-2.4694429,0.
 ,0.,0.\PG=C02V [C2(O1Si1),SGV(H2)]\\@


 Human beings, who are almost unique in having the
 ability to learn from the experience of others, are
 also remarkable for their apparent disinclination to do so.
                               -- Douglas Adams,
                                Last Chance to See
 Job cpu time:       0 days  0 hours  0 minutes 17.4 seconds.
 Elapsed time:       0 days  0 hours  0 minutes  4.4 seconds.
 File lengths (MBytes):  RWF=     15 Int=      0 D2E=      0 Chk=      3 Scr=      1
 Normal termination of Gaussian 16 at Thu Sep 28 22:15:12 2023.
