 Entering Gaussian System, Link 0=g16
 AtFile(1): pcseg2.gbs
            -H     0
            S   4   1.00
                  0.754732D+02           0.427821D-02
                  0.113575D+02           0.328672D-01
                  0.260081D+01           0.159578D+00
                  0.735503D+00           0.500000D+00
            S   1   1.00
                  0.231761D+00           1.0000000
            S   1   1.00
                  0.741675D-01           1.0000000
            P   1   1.00
                  0.160000D+01           1.0000000
            P   1   1.00
                  0.450000D+00           1.0000000
            D   1   1.00
                  0.125000D+01           1.0000000
            ****
            -C     0
            S   7   1.00
                  0.731999D+04           0.695369D-03
                  0.109818D+04           0.537138D-02
                  0.250014D+03           0.274734D-01
                  0.707586D+02           0.105078D+00
                  0.228595D+02           0.291262D+00
                  0.803936D+01           0.500000D+00
                  0.289309D+01           0.362224D+00
            S   2   1.00
                  0.521640D+01          -0.957844D-01
                  0.556124D+00           0.500000D+00
            S   1   1.00
                  0.228813D+00           1.0000000
            S   1   1.00
                  0.936338D-01           1.0000000
            P   4   1.00
                  0.339855D+02           0.818395D-02
                  0.772957D+01           0.586921D-01
                  0.224954D+01           0.222514D+00
                  0.767681D+00           0.500000D+00
            P   1   1.00
                  0.263283D+00           1.0000000
            P   1   1.00
                  0.848744D-01           1.0000000
            D   1   1.00
                  0.140000D+01           1.0000000
            D   1   1.00
                  0.450000D+00           1.0000000
            F   1   1.00
                  0.950000D+00           1.0000000
            ****
            -O     0
            S   7   1.00
                  0.135887D+05           0.665492D-03
                  0.203847D+04           0.514222D-02
                  0.464041D+03           0.263472D-01
                  0.131339D+03           0.101500D+00
                  0.425340D+02           0.285877D+00
                  0.150429D+02           0.500000D+00
                  0.546616D+01           0.368211D+00
            S   2   1.00
                  0.100915D+02          -0.100084D+00
                  0.110429D+01           0.500000D+00
            S   1   1.00
                  0.448082D+00           1.0000000
            S   1   1.00
                  0.175325D+00           1.0000000
            P   4   1.00
                  0.608220D+02           0.908253D-02
                  0.140332D+02           0.645878D-01
                  0.418244D+01           0.241502D+00
                  0.142490D+01           0.500000D+00
            P   1   1.00
                  0.478741D+00           1.0000000
            P   1   1.00
                  0.146257D+00           1.0000000
            D   1   1.00
                  0.220000D+01           1.0000000
            D   1   1.00
                  0.650000D+00           1.0000000
            F   1   1.00
                  0.110000D+01           1.0000000
            ****
            -N     0
            S   7   1.00
                  0.101643D+05           0.682757D-03
                  0.152481D+04           0.527488D-02
                  0.347119D+03           0.270037D-01
                  0.982389D+02           0.103673D+00
                  0.317799D+02           0.289575D+00
                  0.112240D+02           0.500000D+00
                  0.406611D+01           0.364621D+00
            S   2   1.00
                  0.747898D+01          -0.975681D-01
                  0.805040D+00           0.500000D+00
            S   1   1.00
                  0.324626D+00           1.0000000
            S   1   1.00
                  0.128132D+00           1.0000000
            P   4   1.00
                  0.482704D+02           0.829547D-02
                  0.110815D+02           0.596223D-01
                  0.326643D+01           0.227889D+00
                  0.111680D+01           0.500000D+00
            P   1   1.00
                  0.382049D+00           1.0000000
            P   1   1.00
                  0.121222D+00           1.0000000
            D   1   1.00
                  0.180000D+01           1.0000000
            D   1   1.00
                  0.550000D+00           1.0000000
            F   1   1.00
                  0.102000D+01           1.0000000
            ****
            -F     0
            S   7   1.00
                  0.174507D+05           0.655972D-03
                  0.261768D+04           0.506944D-02
                  0.595857D+03           0.259899D-01
                  0.168651D+03           0.100353D+00
                  0.546654D+02           0.284095D+00
                  0.193717D+02           0.500000D+00
                  0.706202D+01           0.370721D+00
            S   2   1.00
                  0.131197D+02          -0.101997D+00
                  0.145046D+01           0.500000D+00
            S   1   1.00
                  0.588255D+00           1.0000000
            S   1   1.00
                  0.227960D+00           1.0000000
            P   4   1.00
                  0.779407D+02           0.931135D-02
                  0.180425D+02           0.663964D-01
                  0.542342D+01           0.246386D+00
                  0.184876D+01           0.500000D+00
            P   1   1.00
                  0.617455D+00           1.0000000
            P   1   1.00
                  0.185496D+00           1.0000000
            D   1   1.00
                  0.280000D+01           1.0000000
            D   1   1.00
                  0.800000D+00           1.0000000
            F   1   1.00
                  0.120000D+01           1.0000000
            ****
            -Cl     0
            S   8   1.00
                  0.154272D+06           0.222473D-03
                  0.231232D+05           0.172590D-02
                  0.526257D+04           0.899286D-02
                  0.148995D+04           0.367724D-01
                  0.485417D+03           0.121446D+00
                  0.174634D+03           0.304148D+00
                  0.672393D+02           0.500000D+00
                  0.265780D+02           0.360252D+00
            S   3   1.00
                  0.131826D+03          -0.531330D-01
                  0.400703D+02          -0.233346D+00
                  0.789448D+01           0.500000D+00
            S   2   1.00
                  0.427711D+01           0.500000D+00
                  0.196233D+01           0.370517D+00
            S   1   1.00
                  0.520793D+00           1.0000000
            S   1   1.00
                  0.181633D+00           1.0000000
            P   7   1.00
                  0.124440D+04           0.988206D-03
                  0.295109D+03           0.829674D-02
                  0.947224D+02           0.430906D-01
                  0.352588D+02           0.148443D+00
                  0.144211D+02           0.344744D+00
                  0.610371D+01           0.500000D+00
                  0.258886D+01           0.348278D+00
            P   2   1.00
                  0.109447D+02          -0.196768D-01
                  0.104413D+01           0.500000D+00
            P   1   1.00
                  0.376184D+00           1.0000000
            P   1   1.00
                  0.120613D+00           1.0000000
            D   1   1.00
                  0.231000D+01           1.0000000
            D   1   1.00
                  0.520000D+00           1.0000000
            F   1   1.00
                  0.720000D+00           1.0000000
            ****
            -S     0
            S   8   1.00
                  0.134700D+06           0.226231D-03
                  0.201904D+05           0.175488D-02
                  0.459528D+04           0.914190D-02
                  0.130109D+04           0.373551D-01
                  0.423902D+03           0.123121D+00
                  0.152485D+03           0.306801D+00
                  0.586925D+02           0.500000D+00
                  0.231461D+02           0.354358D+00
            S   3   1.00
                  0.116327D+03          -0.491772D-01
                  0.352841D+02          -0.215962D+00
                  0.677831D+01           0.500000D+00
            S   2   1.00
                  0.360404D+01           0.500000D+00
                  0.164871D+01           0.366278D+00
            S   1   1.00
                  0.421821D+00           1.0000000
            S   1   1.00
                  0.147554D+00           1.0000000
            P   7   1.00
                  0.104863D+04           0.105273D-02
                  0.248717D+03           0.879338D-02
                  0.797887D+02           0.453358D-01
                  0.296023D+02           0.154476D+00
                  0.120627D+02           0.352366D+00
                  0.507628D+01           0.500000D+00
                  0.213375D+01           0.346429D+00
            P   2   1.00
                  0.928958D+01          -0.185932D-01
                  0.837819D+00           0.500000D+00
            P   1   1.00
                  0.301495D+00           1.0000000
            P   1   1.00
                  0.974740D-01           1.0000000
            D   1   1.00
                  0.210000D+01           1.0000000
            D   1   1.00
                  0.480000D+00           1.0000000
            F   1   1.00
                  0.660000D+00           1.0000000
            ****
            -Br     0
            S    10   1.00
                  0.233625D+07           0.532336D-04
                  0.349961D+06           0.413715D-03
                  0.796444D+05           0.217123D-02
                  0.225555D+05           0.910109D-02
                  0.735546D+04           0.323789D-01
                  0.265352D+04           0.988755D-01
                  0.103517D+04           0.248138D+00
                  0.422205D+03           0.474328D+00
                  0.180035D+03           0.500000D+00
                  0.793308D+02           0.187769D+00
            S    4   1.00
                  0.620834D+03          -0.226511D-01
                  0.190829D+03          -0.109497D+00
                  0.312505D+02           0.500000D+00
                  0.135270D+02           0.492812D+00
            S    2   1.00
                  0.216097D+02          -0.165418D+00
                  0.372566D+01           0.500000D+00
            S    1   1.00
                  0.169770D+01           1.0000000
            S    1   1.00
                  0.489332D+00           1.0000000
            S    1   1.00
                  0.175712D+00           1.0000000
            P    8   1.00
                  0.960829D+04           0.478974D-03
                  0.227618D+04           0.417853D-02
                  0.736723D+03           0.229315D-01
                  0.281579D+03           0.892653D-01
                  0.118395D+03           0.255288D+00
                  0.527481D+02           0.479074D+00
                  0.245098D+02           0.500000D+00
                  0.112009D+02           0.200944D+00
            P    4   1.00
                  0.587849D+02          -0.189674D-01
                  0.918962D+01           0.264104D+00
                  0.413895D+01           0.500000D+00
                  0.184225D+01           0.319316D+00
            P    1   1.00
                  0.713862D+00           1.0000000
            P    1   1.00
                  0.274232D+00           1.0000000
            P    1   1.00
                  0.944411D-01           1.0000000
            D    7   1.00
                  0.398470D+03           0.204066D-02
                  0.118967D+03           0.175171D-01
                  0.450197D+02           0.829708D-01
                  0.190320D+02           0.236284D+00
                  0.855686D+01           0.428468D+00
                  0.382950D+01           0.500000D+00
                  0.166291D+01           0.349360D+00
            D    1   1.00
                  0.672953D+00           1.0000000
            D    1   1.00
                  0.252000D+00           1.0000000
            F    1   1.00
                  0.530000D+00           1.0000000
            ****
            -Si     0
            S    8   1.00
                  0.996133D+05           0.235546D-03
                  0.149311D+05           0.182707D-02
                  0.339820D+04           0.951425D-02
                  0.962140D+03           0.388172D-01
                  0.313430D+03           0.127328D+00
                  0.112683D+03           0.313522D+00
                  0.433372D+02           0.500000D+00
                  0.170029D+02           0.340347D+00
            S    3   1.00
                  0.884208D+02          -0.404451D-01
                  0.266756D+02          -0.178059D+00
                  0.479640D+01           0.500000D+00
            S    2   1.00
                  0.239385D+01           0.500000D+00
                  0.108333D+01           0.338016D+00
            S    1   1.00
                  0.252420D+00           1.0000000
            S    1   1.00
                  0.891210D-01           1.0000000
            P    7   1.00
                  0.709901D+03           0.123028D-02
                  0.168426D+03           0.101366D-01
                  0.539946D+02           0.511840D-01
                  0.198646D+02           0.169967D+00
                  0.801369D+01           0.370717D+00
                  0.331870D+01           0.500000D+00
                  0.136112D+01           0.344128D+00
            P    2   1.00
                  0.622158D+01          -0.166609D-01
                  0.503049D+00           0.500000D+00
            P    1   1.00
                  0.179848D+00           1.0000000
            P    1   1.00
                  0.591912D-01           1.0000000
            D    1   1.00
                  0.168000D+01           1.0000000
            D    1   1.00
                  0.380000D+00           1.0000000
            F    1   1.00
                  0.540000D+00           1.0000000
            ****
            -P     0
            S    8   1.00
                  0.116416D+06           0.230715D-03
                  0.174500D+05           0.178960D-02
                  0.397149D+04           0.932116D-02
                  0.112447D+04           0.380591D-01
                  0.366347D+03           0.125148D+00
                  0.131757D+03           0.310022D+00
                  0.506988D+02           0.500000D+00
                  0.199436D+02           0.347528D+00
            S    3   1.00
                  0.101878D+03          -0.446755D-01
                  0.308249D+02          -0.196376D+00
                  0.573688D+01           0.500000D+00
            S    2   1.00
                  0.296868D+01           0.500000D+00
                  0.135315D+01           0.355098D+00
            S    1   1.00
                  0.332196D+00           1.0000000
            S    1   1.00
                  0.116229D+00           1.0000000
            P    7   1.00
                  0.873928D+03           0.112375D-02
                  0.207298D+03           0.933330D-02
                  0.664628D+02           0.477213D-01
                  0.245665D+02           0.160733D+00
                  0.996820D+01           0.359760D+00
                  0.416536D+01           0.500000D+00
                  0.173022D+01           0.346593D+00
            P    2   1.00
                  0.772530D+01          -0.175718D-01
                  0.657252D+00           0.500000D+00
            P    1   1.00
                  0.239903D+00           1.0000000
            P    1   1.00
                  0.800988D-01           1.0000000
            D    1   1.00
                  0.189000D+01           1.0000000
            D    1   1.00
                  0.430000D+00           1.0000000
            F    1   1.00
                  0.600000D+00           1.0000000
            ****
            
 Initial command:
 /usr/local/apps/g16_b01_avx/g16/l1.exe "/wrk/irikura/Gau-29032.inp" -scrdir="/wrk/irikura/"
 Entering Link 1 = /usr/local/apps/g16_b01_avx/g16/l1.exe PID=     29034.
  
 Copyright (c) 1988-2017, Gaussian, Inc.  All Rights Reserved.
  
 This is part of the Gaussian(R) 16 program.  It is based on
 the Gaussian(R) 09 system (copyright 2009, Gaussian, Inc.),
 the Gaussian(R) 03 system (copyright 2003, Gaussian, Inc.),
 the Gaussian(R) 98 system (copyright 1998, Gaussian, Inc.),
 the Gaussian(R) 94 system (copyright 1995, Gaussian, Inc.),
 the Gaussian 92(TM) system (copyright 1992, Gaussian, Inc.),
 the Gaussian 90(TM) system (copyright 1990, Gaussian, Inc.),
 the Gaussian 88(TM) system (copyright 1988, Gaussian, Inc.),
 the Gaussian 86(TM) system (copyright 1986, Carnegie Mellon
 University), and the Gaussian 82(TM) system (copyright 1983,
 Carnegie Mellon University). Gaussian is a federally registered
 trademark of Gaussian, Inc.
  
 This software contains proprietary and confidential information,
 including trade secrets, belonging to Gaussian, Inc.
  
 This software is provided under written license and may be
 used, copied, transmitted, or stored only in accord with that
 written license.
  
 The following legend is applicable only to US Government
 contracts under FAR:
  
                    RESTRICTED RIGHTS LEGEND
  
 Use, reproduction and disclosure by the US Government is
 subject to restrictions as set forth in subparagraphs (a)
 and (c) of the Commercial Computer Software - Restricted
 Rights clause in FAR 52.227-19.
  
 Gaussian, Inc.
 340 Quinnipiac St., Bldg. 40, Wallingford CT 06492
  
  
 ---------------------------------------------------------------
 Warning -- This program may not be used in any manner that
 competes with the business of Gaussian, Inc. or will provide
 assistance to any competitor of Gaussian, Inc.  The licensee
 of this program is prohibited from giving any competitor of
 Gaussian, Inc. access to this program.  By using this program,
 the user acknowledges that Gaussian, Inc. is engaged in the
 business of creating and licensing software in the field of
 computational chemistry and represents and warrants to the
 licensee that it is not a competitor of Gaussian, Inc. and that
 it will not use this program in any manner prohibited above.
 ---------------------------------------------------------------
  

 Cite this work as:
 Gaussian 16, Revision B.01,
 M. J. Frisch, G. W. Trucks, H. B. Schlegel, G. E. Scuseria, 
 M. A. Robb, J. R. Cheeseman, G. Scalmani, V. Barone, 
 G. A. Petersson, H. Nakatsuji, X. Li, M. Caricato, A. V. Marenich, 
 J. Bloino, B. G. Janesko, R. Gomperts, B. Mennucci, H. P. Hratchian, 
 J. V. Ortiz, A. F. Izmaylov, J. L. Sonnenberg, D. Williams-Young, 
 F. Ding, F. Lipparini, F. Egidi, J. Goings, B. Peng, A. Petrone, 
 T. Henderson, D. Ranasinghe, V. G. Zakrzewski, J. Gao, N. Rega, 
 G. Zheng, W. Liang, M. Hada, M. Ehara, K. Toyota, R. Fukuda, 
 J. Hasegawa, M. Ishida, T. Nakajima, Y. Honda, O. Kitao, H. Nakai, 
 T. Vreven, K. Throssell, J. A. Montgomery, Jr., J. E. Peralta, 
 F. Ogliaro, M. J. Bearpark, J. J. Heyd, E. N. Brothers, K. N. Kudin, 
 V. N. Staroverov, T. A. Keith, R. Kobayashi, J. Normand, 
 K. Raghavachari, A. P. Rendell, J. C. Burant, S. S. Iyengar, 
 J. Tomasi, M. Cossi, J. M. Millam, M. Klene, C. Adamo, R. Cammi, 
 J. W. Ochterski, R. L. Martin, K. Morokuma, O. Farkas, 
 J. B. Foresman, and D. J. Fox, Gaussian, Inc., Wallingford CT, 2016.
 
 ******************************************
 Gaussian 16:  ES64L-G16RevB.01 20-Dec-2017
                17-Jun-2022 
 ******************************************
 %mem=1000mw
 %nprocs=12
 Will use up to   12 processors via shared memory.
 --------------------
 # b3lyp/gen opt freq
 --------------------
 1/18=20,19=15,26=3,38=1/1,3;
 2/9=110,12=2,17=6,18=5,40=1/2;
 3/5=7,11=2,25=1,30=1,71=1,74=-5/1,2,3;
 4//1;
 5/5=2,38=5/2;
 6/7=2,8=2,9=2,10=2,28=1/1;
 7//1,2,3,16;
 1/18=20,19=15,26=3/3(2);
 2/9=110/2;
 99//99;
 2/9=110/2;
 3/5=7,6=1,11=2,25=1,30=1,71=1,74=-5,82=7/1,2,3;
 4/5=5,16=3,69=1/1;
 5/5=2,38=5/2;
 7//1,2,3,16;
 1/18=20,19=15,26=3/3(-5);
 2/9=110/2;
 6/7=2,8=2,9=2,10=2,19=2,28=1/1;
 99/9=1/99;
 ----------------------------------
 silicon monohydride, B3LYP/pcseg-2
 ----------------------------------
 Symbolic Z-matrix:
 Charge =  0 Multiplicity = 2
 Si                    0.        0.        0.10253 
 H                     0.        0.       -1.43537 
 

 GradGradGradGradGradGradGradGradGradGradGradGradGradGradGradGradGradGrad
 Berny optimization.
 Initialization pass.
                           ----------------------------
                           !    Initial Parameters    !
                           ! (Angstroms and Degrees)  !
 --------------------------                            --------------------------
 ! Name  Definition              Value          Derivative Info.                !
 --------------------------------------------------------------------------------
 ! R1    R(1,2)                  1.5379         estimate D2E/DX2                !
 --------------------------------------------------------------------------------
 Trust Radius=3.00D-01 FncErr=1.00D-07 GrdErr=1.00D-06 EigMax=2.50D+02 EigMin=1.00D-04
 Number of steps in this run=     20 maximum allowed number of steps=    100.
 GradGradGradGradGradGradGradGradGradGradGradGradGradGradGradGradGradGrad

                          Input orientation:                          
 ---------------------------------------------------------------------
 Center     Atomic      Atomic             Coordinates (Angstroms)
 Number     Number       Type             X           Y           Z
 ---------------------------------------------------------------------
      1         14           0        0.000000    0.000000    0.102526
      2          1           0        0.000000    0.000000   -1.435367
 ---------------------------------------------------------------------
 Stoichiometry    HSi(2)
 Framework group  C*V[C*(HSi)]
 Deg. of freedom     1
 Full point group                 C*V     NOp   4
 Largest Abelian subgroup         C2V     NOp   4
 Largest concise Abelian subgroup C1      NOp   1
                         Standard orientation:                         
 ---------------------------------------------------------------------
 Center     Atomic      Atomic             Coordinates (Angstroms)
 Number     Number       Type             X           Y           Z
 ---------------------------------------------------------------------
      1         14           0        0.000000    0.000000    0.102526
      2          1           0        0.000000    0.000000   -1.435367
 ---------------------------------------------------------------------
 Rotational constants (GHZ):           0.0000000         219.6591988         219.6591988
 General basis read from cards:  (5D, 7F)
 There are    26 symmetry adapted cartesian basis functions of A1  symmetry.
 There are     4 symmetry adapted cartesian basis functions of A2  symmetry.
 There are    12 symmetry adapted cartesian basis functions of B1  symmetry.
 There are    12 symmetry adapted cartesian basis functions of B2  symmetry.
 There are    22 symmetry adapted basis functions of A1  symmetry.
 There are     4 symmetry adapted basis functions of A2  symmetry.
 There are    11 symmetry adapted basis functions of B1  symmetry.
 There are    11 symmetry adapted basis functions of B2  symmetry.
    48 basis functions,    88 primitive gaussians,    54 cartesian basis functions
     8 alpha electrons        7 beta electrons
       nuclear repulsion energy         4.8172928499 Hartrees.
 NAtoms=    2 NActive=    2 NUniq=    2 SFac= 1.00D+00 NAtFMM=   60 NAOKFM=F Big=F
 Integral buffers will be    131072 words long.
 Raffenetti 2 integral format.
 Two-electron integral symmetry is turned on.
 One-electron integrals computed using PRISM.
 NBasis=    48 RedAO= T EigKep=  1.68D-02  NBF=    22     4    11    11
 NBsUse=    48 1.00D-06 EigRej= -1.00D+00 NBFU=    22     4    11    11
 ExpMin= 5.92D-02 ExpMax= 9.96D+04 ExpMxC= 9.62D+02 IAcc=3 IRadAn=         5 AccDes= 0.00D+00
 Harris functional with IExCor=  402 and IRadAn=       5 diagonalized for initial guess.
 HarFok:  IExCor=  402 AccDes= 0.00D+00 IRadAn=         5 IDoV= 1 UseB2=F ITyADJ=14
 ICtDFT=  3500011 ScaDFX=  1.000000  1.000000  1.000000  1.000000
 FoFCou: FMM=F IPFlag=           0 FMFlag=      100000 FMFlg1=           0
         NFxFlg=           0 DoJE=T BraDBF=F KetDBF=T FulRan=T
         wScrn=  0.000000 ICntrl=       500 IOpCl=  0 I1Cent=   200000004 NGrid=           0
         NMat0=    1 NMatS0=      1 NMatT0=    0 NMatD0=    1 NMtDS0=    0 NMtDT0=    0
 Petite list used in FoFCou.
 Initial guess orbital symmetries:
 Alpha Orbitals:
       Occupied  (SG) (SG) (SG) (PI) (PI) (SG) (SG) (PI)
       Virtual   (PI) (SG) (SG) (PI) (PI) (SG) (SG) (PI) (PI) (DLTA)
                 (DLTA) (SG) (PI) (PI) (SG) (PI) (PI) (SG) (SG)
                 (DLTA) (DLTA) (PHI) (PHI) (PI) (PI) (SG) (DLTA)
                 (DLTA) (PI) (PI) (SG) (DLTA) (DLTA) (PI) (PI)
                 (SG) (PI) (PI) (SG) (SG)
 Beta  Orbitals:
       Occupied  (SG) (SG) (SG) (PI) (PI) (SG) (SG)
       Virtual   (PI) (PI) (SG) (SG) (PI) (PI) (SG) (SG) (PI) (PI)
                 (DLTA) (DLTA) (SG) (PI) (PI) (SG) (PI) (PI) (SG)
                 (SG) (DLTA) (DLTA) (PHI) (PHI) (PI) (PI) (SG)
                 (DLTA) (DLTA) (PI) (PI) (SG) (DLTA) (DLTA) (PI)
                 (PI) (SG) (PI) (PI) (SG) (SG)
 Initial guess <Sx>= 0.0000 <Sy>= 0.0000 <Sz>= 0.5000 <S**2>= 0.7500 S= 0.5000
 Keep R1 and R2 ints in memory in symmetry-blocked form, NReq=11218352.
 Requested convergence on RMS density matrix=1.00D-08 within 128 cycles.
 Requested convergence on MAX density matrix=1.00D-06.
 Requested convergence on             energy=1.00D-06.
 No special actions if energy rises.
 Integral accuracy reduced to 1.0D-05 until final iterations.
 Initial convergence to 1.0D-05 achieved.  Increase integral accuracy.
 SCF Done:  E(UB3LYP) =  -290.020364186     A.U. after   12 cycles
            NFock= 12  Conv=0.23D-08     -V/T= 2.0010
 <Sx>= 0.0000 <Sy>= 0.0000 <Sz>= 0.5000 <S**2>= 0.7535 S= 0.5017
 <L.S>=  0.00000000000    
 Annihilation of the first spin contaminant:
 S**2 before annihilation     0.7535,   after     0.7500

 **********************************************************************

            Population analysis using the SCF Density.

 **********************************************************************

 Orbital symmetries:
 Alpha Orbitals:
       Occupied  (SG) (SG) (PI) (PI) (SG) (SG) (SG) (PI)
       Virtual   (PI) (SG) (SG) (PI) (PI) (SG) (SG) (PI) (PI) (DLTA)
                 (DLTA) (SG) (PI) (PI) (SG) (PI) (PI) (SG) (PHI)
                 (PHI) (?A) (?A) (?A) (PI) (PI) (SG) (DLTA) (DLTA)
                 (PI) (PI) (SG) (DLTA) (DLTA) (PI) (PI) (SG) (PI)
                 (PI) (SG) (SG)
 Beta  Orbitals:
       Occupied  (SG) (SG) (PI) (SG) (PI) (SG) (SG)
       Virtual   (PI) (PI) (SG) (SG) (PI) (PI) (SG) (?A) (PI) (PI)
                 (?A) (?A) (?A) (PI) (PI) (SG) (PI) (PI) (?A) (SG)
                 (?A) (?A) (?B) (?B) (?B) (?B) (?A) (?C) (?C) (PI)
                 (PI) (?C) (DLTA) (DLTA) (PI) (PI) (SG) (PI) (PI)
                 (SG) (SG)
 Unable to determine electronic state:  partially filled degenerate orbitals.
 Alpha  occ. eigenvalues --  -66.12521  -5.30177  -3.66378  -3.66049  -3.65388
 Alpha  occ. eigenvalues --   -0.48946  -0.28175  -0.19127
 Alpha virt. eigenvalues --   -0.12610   0.02608   0.10490   0.14140   0.14904
 Alpha virt. eigenvalues --    0.17052   0.34523   0.40863   0.41488   0.44873
 Alpha virt. eigenvalues --    0.45336   0.61717   0.88057   0.88134   1.03156
 Alpha virt. eigenvalues --    1.06073   1.06298   1.28193   1.56728   1.56817
 Alpha virt. eigenvalues --    1.56940   1.57210   1.57505   1.72851   1.73048
 Alpha virt. eigenvalues --    1.95832   2.97143   2.97253   3.02407   3.03293
 Alpha virt. eigenvalues --    3.29332   3.83922   3.83937   4.06940   4.07156
 Alpha virt. eigenvalues --    4.29949   4.44071   4.44270   4.89374  12.74769
  Beta  occ. eigenvalues --  -66.12196  -5.29825  -3.66199  -3.65201  -3.64870
  Beta  occ. eigenvalues --   -0.46545  -0.27045
  Beta virt. eigenvalues --   -0.11702  -0.08704   0.03241   0.10776   0.15147
  Beta virt. eigenvalues --    0.16726   0.17774   0.35614   0.41673   0.44184
  Beta virt. eigenvalues --    0.49137   0.49159   0.62765   0.88106   0.89620
  Beta virt. eigenvalues --    1.03708   1.06745   1.09479   1.28669   1.57179
  Beta virt. eigenvalues --    1.59928   1.59934   1.60766   1.60801   1.73245
  Beta virt. eigenvalues --    1.75849   1.96804   2.98033   2.98071   3.02406
  Beta virt. eigenvalues --    3.04135   3.30003   3.83971   3.83971   4.06754
  Beta virt. eigenvalues --    4.07437   4.30041   4.43914   4.44582   4.89295
  Beta virt. eigenvalues --   12.75368
          Condensed to atoms (all electrons):
               1          2
     1  Si  13.628900   0.209851
     2  H    0.209851   0.951398
          Atomic-Atomic Spin Densities.
               1          2
     1  Si   1.034994  -0.014069
     2  H   -0.014069  -0.006857
 Mulliken charges and spin densities:
               1          2
     1  Si   0.161249   1.020926
     2  H   -0.161249  -0.020926
 Sum of Mulliken charges =  -0.00000   1.00000
 Mulliken charges and spin densities with hydrogens summed into heavy atoms:
               1          2
     1  Si  -0.000000   1.000000
 Electronic spatial extent (au):  <R**2>=             41.3629
 Charge=             -0.0000 electrons
 Dipole moment (field-independent basis, Debye):
    X=              0.0000    Y=              0.0000    Z=             -0.1162  Tot=              0.1162
 Quadrupole moment (field-independent basis, Debye-Ang):
   XX=            -11.6978   YY=            -16.4551   ZZ=            -16.8788
   XY=              0.0000   XZ=              0.0000   YZ=              0.0000
 Traceless Quadrupole moment (field-independent basis, Debye-Ang):
   XX=              3.3127   YY=             -1.4445   ZZ=             -1.8682
   XY=              0.0000   XZ=              0.0000   YZ=              0.0000
 Octapole moment (field-independent basis, Debye-Ang**2):
  XXX=              0.0000  YYY=              0.0000  ZZZ=              1.4085  XYY=              0.0000
  XXY=              0.0000  XXZ=             -0.2063  XZZ=              0.0000  YZZ=              0.0000
  YYZ=             -0.6255  XYZ=              0.0000
 Hexadecapole moment (field-independent basis, Debye-Ang**3):
 XXXX=            -17.1458 YYYY=            -36.8399 ZZZZ=            -49.8090 XXXY=              0.0000
 XXXZ=              0.0000 YYYX=              0.0000 YYYZ=              0.0000 ZZZX=              0.0000
 ZZZY=              0.0000 XXYY=             -8.9956 XXZZ=            -10.9321 YYZZ=            -14.2640
 XXYZ=              0.0000 YYXZ=              0.0000 ZZXY=              0.0000
 N-N= 4.817292849945D+00 E-N=-7.007428420456D+02  KE= 2.897386419648D+02
 Symmetry A1   KE= 2.397178819065D+02
 Symmetry A2   KE= 4.647247681936D-35
 Symmetry B1   KE= 2.448529445166D+01
 Symmetry B2   KE= 2.553546560668D+01
 Symmetry A1   SP=-6.057674706902D-15
 Symmetry A2   SP=-2.217843174633D-35
 Symmetry B1   SP=-5.676071117571D-15
 Symmetry B2   SP= 1.000000000000D+00
                          Isotropic Fermi Contact Couplings
        Atom                 a.u.       MegaHertz       Gauss      10(-4) cm-1
     1  Si(29)             0.05163     -45.88282     -16.37213     -15.30486
     2  H(1)              -0.00539     -24.07168      -8.58937      -8.02945
 --------------------------------------------------------
       Center         ----  Spin Dipole Couplings  ----
                      3XX-RR        3YY-RR        3ZZ-RR
 --------------------------------------------------------
     1   Atom       -0.960473      1.910921     -0.950448
     2   Atom       -0.024344      0.009350      0.014994
 --------------------------------------------------------
                        XY            XZ            YZ
 --------------------------------------------------------
     1   Atom        0.000000      0.000000      0.000000
     2   Atom        0.000000      0.000000      0.000000
 --------------------------------------------------------


 ---------------------------------------------------------------------------------
              Anisotropic Spin Dipole Couplings in Principal Axis System
 ---------------------------------------------------------------------------------

       Atom             a.u.   MegaHertz   Gauss  10(-4) cm-1        Axes

              Baa    -0.9605   101.891    36.357    33.987  1.0000  0.0000  0.0000
     1 Si(29) Bbb    -0.9504   100.827    35.978    33.632  0.0000  0.0000  1.0000
              Bcc     1.9109  -202.718   -72.335   -67.620 -0.0000  1.0000  0.0000
 
              Baa    -0.0243   -12.989    -4.635    -4.333  1.0000  0.0000  0.0000
     2 H(1)   Bbb     0.0093     4.989     1.780     1.664 -0.0000  1.0000  0.0000
              Bcc     0.0150     8.000     2.855     2.669  0.0000  0.0000  1.0000
 

 ---------------------------------------------------------------------------------

 Calling FoFJK, ICntrl=      2127 FMM=F ISym2X=1 I1Cent= 0 IOpClX= 1 NMat=1 NMatS=1 NMatT=0.
 ***** Axes restored to original set *****
 -------------------------------------------------------------------
 Center     Atomic                   Forces (Hartrees/Bohr)
 Number     Number              X              Y              Z
 -------------------------------------------------------------------
      1       14          -0.000000000   -0.000000000   -0.002117696
      2        1          -0.000000000   -0.000000000    0.002117696
 -------------------------------------------------------------------
 Cartesian Forces:  Max     0.002117696 RMS     0.001222652

 GradGradGradGradGradGradGradGradGradGradGradGradGradGradGradGradGradGrad
 Berny optimization.
 FormGI is forming the generalized inverse of G from B-inverse, IUseBI=4.
 Internal  Forces:  Max     0.002117696 RMS     0.002117696
 Search for a local minimum.
 Step number   1 out of a maximum of   20
 All quantities printed in internal units (Hartrees-Bohrs-Radians)
 Mixed Optimization -- RFO/linear search
 Second derivative matrix not updated -- first step.
 The second derivative matrix:
                          R1
           R1           0.15301
 ITU=  0
     Eigenvalues ---    0.15301
 RFO step:  Lambda=-2.93047632D-05 EMin= 1.53005065D-01
 Linear search not attempted -- first point.
 Iteration  1 RMS(Cart)=  0.00978497 RMS(Int)=  0.00000000
 Iteration  2 RMS(Cart)=  0.00000000 RMS(Int)=  0.00000000
 ClnCor:  largest displacement from symmetrization is 0.00D+00 for atom     0.
 Variable       Old X    -DE/DX   Delta X   Delta X   Delta X     New X
                                 (Linear)    (Quad)   (Total)
    R1        2.90620  -0.00212   0.00000  -0.01384  -0.01384   2.89236
         Item               Value     Threshold  Converged?
 Maximum Force            0.002118     0.000450     NO 
 RMS     Force            0.002118     0.000300     NO 
 Maximum Displacement     0.006919     0.001800     NO 
 RMS     Displacement     0.009785     0.001200     NO 
 Predicted change in Energy=-1.465519D-05
 GradGradGradGradGradGradGradGradGradGradGradGradGradGradGradGradGradGrad

                          Input orientation:                          
 ---------------------------------------------------------------------
 Center     Atomic      Atomic             Coordinates (Angstroms)
 Number     Number       Type             X           Y           Z
 ---------------------------------------------------------------------
      1         14           0        0.000000    0.000000    0.098865
      2          1           0        0.000000    0.000000   -1.431706
 ---------------------------------------------------------------------
 Stoichiometry    HSi(2)
 Framework group  C*V[C*(HSi)]
 Deg. of freedom     1
 Full point group                 C*V     NOp   4
 Largest Abelian subgroup         C2V     NOp   4
 Largest concise Abelian subgroup C1      NOp   1
                         Standard orientation:                         
 ---------------------------------------------------------------------
 Center     Atomic      Atomic             Coordinates (Angstroms)
 Number     Number       Type             X           Y           Z
 ---------------------------------------------------------------------
      1         14           0        0.000000    0.000000    0.102038
      2          1           0        0.000000    0.000000   -1.428532
 ---------------------------------------------------------------------
 Rotational constants (GHZ):           0.0000000         221.7660775         221.7660775
 Basis read from rwf:  (5D, 7F)
 There are    26 symmetry adapted cartesian basis functions of A1  symmetry.
 There are     4 symmetry adapted cartesian basis functions of A2  symmetry.
 There are    12 symmetry adapted cartesian basis functions of B1  symmetry.
 There are    12 symmetry adapted cartesian basis functions of B2  symmetry.
 There are    22 symmetry adapted basis functions of A1  symmetry.
 There are     4 symmetry adapted basis functions of A2  symmetry.
 There are    11 symmetry adapted basis functions of B1  symmetry.
 There are    11 symmetry adapted basis functions of B2  symmetry.
    48 basis functions,    88 primitive gaussians,    54 cartesian basis functions
     8 alpha electrons        7 beta electrons
       nuclear repulsion energy         4.8403404410 Hartrees.
 NAtoms=    2 NActive=    2 NUniq=    2 SFac= 1.00D+00 NAtFMM=   60 NAOKFM=F Big=F
 Integral buffers will be    131072 words long.
 Raffenetti 2 integral format.
 Two-electron integral symmetry is turned on.
 One-electron integrals computed using PRISM.
 NBasis=    48 RedAO= T EigKep=  1.64D-02  NBF=    22     4    11    11
 NBsUse=    48 1.00D-06 EigRej= -1.00D+00 NBFU=    22     4    11    11
 Initial guess from the checkpoint file:  "/wrk/irikura/Gau-29034.chk"
 B after Tr=     0.000000    0.000000    0.000000
         Rot=    1.000000    0.000000    0.000000    0.000000 Ang=   0.00 deg.
 Initial guess orbital symmetries:
 Alpha Orbitals:
       Occupied  (SG) (SG) (PI) (PI) (SG) (SG) (SG) (PI)
       Virtual   (PI) (SG) (SG) (PI) (PI) (SG) (SG) (PI) (PI) (DLTA)
                 (DLTA) (SG) (PI) (PI) (SG) (PI) (PI) (SG) (PHI)
                 (PHI) (?A) (?A) (?A) (PI) (PI) (SG) (DLTA) (DLTA)
                 (PI) (PI) (SG) (DLTA) (DLTA) (PI) (PI) (SG) (PI)
                 (PI) (SG) (SG)
 Beta  Orbitals:
       Occupied  (SG) (SG) (PI) (SG) (PI) (SG) (SG)
       Virtual   (PI) (PI) (SG) (SG) (PI) (PI) (SG) (?A) (PI) (PI)
                 (?A) (?A) (?A) (PI) (PI) (SG) (PI) (PI) (?A) (SG)
                 (?A) (?A) (?B) (?B) (?B) (?B) (?A) (?C) (?C) (PI)
                 (PI) (?C) (DLTA) (DLTA) (PI) (PI) (SG) (PI) (PI)
                 (SG) (SG)
 Initial guess <Sx>= 0.0000 <Sy>= 0.0000 <Sz>= 0.5000 <S**2>= 0.7535 S= 0.5017
 Keep R1 and R2 ints in memory in symmetry-blocked form, NReq=11218352.
 Requested convergence on RMS density matrix=1.00D-08 within 128 cycles.
 Requested convergence on MAX density matrix=1.00D-06.
 Requested convergence on             energy=1.00D-06.
 No special actions if energy rises.
 SCF Done:  E(UB3LYP) =  -290.020379683     A.U. after    8 cycles
            NFock=  8  Conv=0.53D-08     -V/T= 2.0010
 <Sx>= 0.0000 <Sy>= 0.0000 <Sz>= 0.5000 <S**2>= 0.7535 S= 0.5017
 <L.S>=  0.00000000000    
 Annihilation of the first spin contaminant:
 S**2 before annihilation     0.7535,   after     0.7500
 Calling FoFJK, ICntrl=      2127 FMM=F ISym2X=1 I1Cent= 0 IOpClX= 1 NMat=1 NMatS=1 NMatT=0.
 ***** Axes restored to original set *****
 -------------------------------------------------------------------
 Center     Atomic                   Forces (Hartrees/Bohr)
 Number     Number              X              Y              Z
 -------------------------------------------------------------------
      1       14          -0.000000000   -0.000000000   -0.000111317
      2        1          -0.000000000   -0.000000000    0.000111317
 -------------------------------------------------------------------
 Cartesian Forces:  Max     0.000111317 RMS     0.000064269

 GradGradGradGradGradGradGradGradGradGradGradGradGradGradGradGradGradGrad
 Berny optimization.
 Using GEDIIS/GDIIS optimizer.
 Internal  Forces:  Max     0.000111317 RMS     0.000111317
 Search for a local minimum.
 Step number   2 out of a maximum of   20
 All quantities printed in internal units (Hartrees-Bohrs-Radians)
 Mixed Optimization -- En-DIIS/RFO-DIIS
 Update second derivatives using D2CorX and points    1    2
 DE= -1.55D-05 DEPred=-1.47D-05 R= 1.06D+00
 TightC=F SS=  1.41D+00  RLast= 1.38D-02 DXNew= 5.0454D-01 4.1514D-02
 Trust test= 1.06D+00 RLast= 1.38D-02 DXMaxT set to 3.00D-01
 The second derivative matrix:
                          R1
           R1           0.14499
 ITU=  1  0
 Use linear search instead of GDIIS.
     Eigenvalues ---    0.14499
 RFO step:  Lambda= 0.00000000D+00 EMin= 1.44990118D-01
 Quartic linear search produced a step of  0.05455.
 Iteration  1 RMS(Cart)=  0.00053378 RMS(Int)=  0.00000000
 Iteration  2 RMS(Cart)=  0.00000000 RMS(Int)=  0.00000000
 ClnCor:  largest displacement from symmetrization is 0.00D+00 for atom     0.
 Variable       Old X    -DE/DX   Delta X   Delta X   Delta X     New X
                                 (Linear)    (Quad)   (Total)
    R1        2.89236  -0.00011  -0.00075   0.00000  -0.00075   2.89160
         Item               Value     Threshold  Converged?
 Maximum Force            0.000111     0.000450     YES
 RMS     Force            0.000111     0.000300     YES
 Maximum Displacement     0.000377     0.001800     YES
 RMS     Displacement     0.000534     0.001200     YES
 Predicted change in Energy=-4.271989D-08
 Optimization completed.
    -- Stationary point found.
                           ----------------------------
                           !   Optimized Parameters   !
                           ! (Angstroms and Degrees)  !
 --------------------------                            --------------------------
 ! Name  Definition              Value          Derivative Info.                !
 --------------------------------------------------------------------------------
 ! R1    R(1,2)                  1.5306         -DE/DX =   -0.0001              !
 --------------------------------------------------------------------------------
 GradGradGradGradGradGradGradGradGradGradGradGradGradGradGradGradGradGrad

                          Input orientation:                          
 ---------------------------------------------------------------------
 Center     Atomic      Atomic             Coordinates (Angstroms)
 Number     Number       Type             X           Y           Z
 ---------------------------------------------------------------------
      1         14           0        0.000000    0.000000    0.098865
      2          1           0        0.000000    0.000000   -1.431706
 ---------------------------------------------------------------------
 Stoichiometry    HSi(2)
 Framework group  C*V[C*(HSi)]
 Deg. of freedom     1
 Full point group                 C*V     NOp   4
 Largest Abelian subgroup         C2V     NOp   4
 Largest concise Abelian subgroup C1      NOp   1
                         Standard orientation:                         
 ---------------------------------------------------------------------
 Center     Atomic      Atomic             Coordinates (Angstroms)
 Number     Number       Type             X           Y           Z
 ---------------------------------------------------------------------
      1         14           0        0.000000    0.000000    0.102038
      2          1           0        0.000000    0.000000   -1.428532
 ---------------------------------------------------------------------
 Rotational constants (GHZ):           0.0000000         221.7660775         221.7660775

 **********************************************************************

            Population analysis using the SCF Density.

 **********************************************************************

 Orbital symmetries:
 Alpha Orbitals:
       Occupied  (SG) (SG) (PI) (PI) (SG) (SG) (SG) (PI)
       Virtual   (PI) (SG) (SG) (PI) (PI) (SG) (SG) (PI) (PI) (DLTA)
                 (DLTA) (SG) (PI) (PI) (SG) (PI) (PI) (SG) (PHI)
                 (PHI) (?A) (?A) (?A) (PI) (PI) (SG) (DLTA) (DLTA)
                 (PI) (PI) (SG) (DLTA) (DLTA) (PI) (PI) (SG) (PI)
                 (PI) (SG) (SG)
 Beta  Orbitals:
       Occupied  (SG) (SG) (PI) (SG) (PI) (SG) (SG)
       Virtual   (PI) (PI) (SG) (SG) (PI) (PI) (SG) (?A) (PI) (PI)
                 (?A) (?A) (?A) (PI) (PI) (SG) (PI) (PI) (?B) (?B)
                 (?B) (?B) (?C) (?C) (?C) (?C) (?B) (?D) (?D) (PI)
                 (PI) (?D) (DLTA) (DLTA) (PI) (PI) (SG) (PI) (PI)
                 (SG) (SG)
 Unable to determine electronic state:  partially filled degenerate orbitals.
 Alpha  occ. eigenvalues --  -66.12461  -5.30131  -3.66333  -3.66004  -3.65340
 Alpha  occ. eigenvalues --   -0.49022  -0.28184  -0.19116
 Alpha virt. eigenvalues --   -0.12600   0.02693   0.10439   0.14147   0.14912
 Alpha virt. eigenvalues --    0.17069   0.34654   0.40853   0.41475   0.44892
 Alpha virt. eigenvalues --    0.45355   0.61950   0.88272   0.88349   1.02987
 Alpha virt. eigenvalues --    1.06079   1.06304   1.28285   1.56748   1.56837
 Alpha virt. eigenvalues --    1.56912   1.57212   1.57506   1.73114   1.73308
 Alpha virt. eigenvalues --    1.96512   2.97166   2.97276   3.02612   3.03498
 Alpha virt. eigenvalues --    3.29293   3.83995   3.84011   4.07139   4.07356
 Alpha virt. eigenvalues --    4.30256   4.44617   4.44817   4.90030  12.76476
  Beta  occ. eigenvalues --  -66.12136  -5.29780  -3.66154  -3.65154  -3.64826
  Beta  occ. eigenvalues --   -0.46631  -0.27043
  Beta virt. eigenvalues --   -0.11692  -0.08696   0.03323   0.10731   0.15155
  Beta virt. eigenvalues --    0.16733   0.17795   0.35747   0.41661   0.44172
  Beta virt. eigenvalues --    0.49160   0.49177   0.62990   0.88324   0.89847
  Beta virt. eigenvalues --    1.03537   1.06751   1.09485   1.28769   1.57160
  Beta virt. eigenvalues --    1.59930   1.59933   1.60786   1.60821   1.73504
  Beta virt. eigenvalues --    1.76106   1.97474   2.98055   2.98093   3.02612
  Beta virt. eigenvalues --    3.04343   3.29973   3.84052   3.84052   4.06954
  Beta virt. eigenvalues --    4.07643   4.30345   4.44464   4.45141   4.89953
  Beta virt. eigenvalues --   12.77074
          Condensed to atoms (all electrons):
               1          2
     1  Si  13.629974   0.209022
     2  H    0.209022   0.951981
          Atomic-Atomic Spin Densities.
               1          2
     1  Si   1.035130  -0.014377
     2  H   -0.014377  -0.006376
 Mulliken charges and spin densities:
               1          2
     1  Si   0.161003   1.020753
     2  H   -0.161003  -0.020753
 Sum of Mulliken charges =   0.00000   1.00000
 Mulliken charges and spin densities with hydrogens summed into heavy atoms:
               1          2
     1  Si   0.000000   1.000000
 Electronic spatial extent (au):  <R**2>=             41.2649
 Charge=              0.0000 electrons
 Dipole moment (field-independent basis, Debye):
    X=              0.0000    Y=              0.0000    Z=             -0.1364  Tot=              0.1364
 Quadrupole moment (field-independent basis, Debye-Ang):
   XX=            -11.6915   YY=            -16.4500   ZZ=            -16.8591
   XY=              0.0000   XZ=              0.0000   YZ=              0.0000
 Traceless Quadrupole moment (field-independent basis, Debye-Ang):
   XX=              3.3087   YY=             -1.4498   ZZ=             -1.8589
   XY=              0.0000   XZ=              0.0000   YZ=              0.0000
 Octapole moment (field-independent basis, Debye-Ang**2):
  XXX=              0.0000  YYY=              0.0000  ZZZ=              1.3199  XYY=              0.0000
  XXY=              0.0000  XXZ=             -0.2321  XZZ=              0.0000  YZZ=              0.0000
  YYZ=             -0.6483  XYZ=              0.0000
 Hexadecapole moment (field-independent basis, Debye-Ang**3):
 XXXX=            -17.1351 YYYY=            -36.8398 ZZZZ=            -49.5210 XXXY=              0.0000
 XXXZ=              0.0000 YYYX=              0.0000 YYYZ=              0.0000 ZZZX=              0.0000
 ZZZY=              0.0000 XXYY=             -8.9938 XXZZ=            -10.8848 YYZZ=            -14.2181
 XXYZ=              0.0000 YYXZ=              0.0000 ZZXY=              0.0000
 N-N= 4.840340440990D+00 E-N=-7.007975839225D+02  KE= 2.897449074850D+02
 Symmetry A1   KE= 2.397251437821D+02
 Symmetry A2   KE= 4.642977343941D-35
 Symmetry B1   KE= 2.448498562405D+01
 Symmetry B2   KE= 2.553477807882D+01
 Symmetry A1   SP=-8.678089713846D-16
 Symmetry A2   SP=-2.216234679484D-35
 Symmetry B1   SP= 3.399305847657D-15
 Symmetry B2   SP= 1.000000000000D+00
                          Isotropic Fermi Contact Couplings
        Atom                 a.u.       MegaHertz       Gauss      10(-4) cm-1
     1  Si(29)             0.05166     -45.91443     -16.38341     -15.31541
     2  H(1)              -0.00536     -23.95724      -8.54854      -7.99128
 --------------------------------------------------------
       Center         ----  Spin Dipole Couplings  ----
                      3XX-RR        3YY-RR        3ZZ-RR
 --------------------------------------------------------
     1   Atom       -0.959860      1.910294     -0.950434
     2   Atom       -0.024585      0.009664      0.014921
 --------------------------------------------------------
                        XY            XZ            YZ
 --------------------------------------------------------
     1   Atom        0.000000      0.000000      0.000000
     2   Atom        0.000000      0.000000      0.000000
 --------------------------------------------------------


 ---------------------------------------------------------------------------------
              Anisotropic Spin Dipole Couplings in Principal Axis System
 ---------------------------------------------------------------------------------

       Atom             a.u.   MegaHertz   Gauss  10(-4) cm-1        Axes

              Baa    -0.9599   101.826    36.334    33.965  1.0000  0.0000  0.0000
     1 Si(29) Bbb    -0.9504   100.826    35.977    33.632  0.0000  0.0000  1.0000
              Bcc     1.9103  -202.652   -72.311   -67.597 -0.0000  1.0000  0.0000
 
              Baa    -0.0246   -13.118    -4.681    -4.376  1.0000  0.0000  0.0000
     2 H(1)   Bbb     0.0097     5.156     1.840     1.720 -0.0000  1.0000  0.0000
              Bcc     0.0149     7.961     2.841     2.656  0.0000  0.0000  1.0000
 

 ---------------------------------------------------------------------------------

 1\1\GINC-GAMBA\FOpt\UB3LYP\Gen\H1Si1(2)\IRIKURA\17-Jun-2022\0\\# b3lyp
 /gen opt freq\\silicon monohydride, B3LYP/pcseg-2\\0,2\Si,0.,0.,0.0988
 64612\H,0.,0.,-1.431705612\\Version=ES64L-G16RevB.01\HF=-290.0203797\S
 2=0.753467\S2-1=0.\S2A=0.750001\RMSD=5.336e-09\RMSF=6.427e-05\Dipole=0
 .,0.,-0.0536721\Quadrupole=2.4599268,-1.0778559,-1.3820709,0.,0.,0.\PG
 =C*V [C*(H1Si1)]\\@


          EVOLUTION
 IN THE BEGINNING GOD MADE MAN.
 HE WORKED THE DIRT WITH HIS HANDS.
 THEN GOD DECIDED TO GIVE MAN SCIENCE,
 MAN SHOULD BE USEFUL (LIKE AN APPLIANCE.)
 BUT SOON MAN'S KNOWLEDGE GREW TOO GREAT,
 TO THE HEADING SCIENCE HE COULDN'T RELATE
 SO GOD SAID "LETS HAVE DIFFERENT FIELDS,
 WE'LL DIVIDE THEM UP, SEE WHAT IT YIELDS."
 ENTER PHYSICS, CHEMISTRY, BIO
 THEY SPRANG UP AROUND THE NILE.
 BUT CHEMISTRY SURPASSED THE REST
 FAR AND AWAY IT WAS THE BEST.
 EXPERIMENT WAS GOD'S DECREE
 EXPERIMENT DID CHEMISTS WITH LOTS OF GLEE
 BUT SOON THEIR TESTS BEGAN TO BOG,
 THEY FOUND THEMSELVES DEEP IN A FOG.
 "GIVE US SOME HELP" THEY CRIED TO GOD.
 GOD LOOKED AROUND, THEN GAVE THE NOD.
 ENTER EINSTEIN, HEISENBERG, BOHR,
 REACTION PATHS WERE CLEAR ONCE MORE.
 WITH THEORISTS GOD SEND DIRECTION
 AND THEN HE STOPPED, HE'D MADE PERFECTION.
          -- THOMAS A. HOLME, 1981
 Job cpu time:       0 days  0 hours  0 minutes 53.9 seconds.
 Elapsed time:       0 days  0 hours  0 minutes  4.6 seconds.
 File lengths (MBytes):  RWF=      6 Int=      0 D2E=      0 Chk=      1 Scr=      1
 Normal termination of Gaussian 16 at Fri Jun 17 20:45:48 2022.
 Link1:  Proceeding to internal job step number  2.
 ------------------------------------------------------------------
 #N Geom=AllCheck Guess=TCheck SCRF=Check GenChk UB3LYP/ChkBas Freq
 ------------------------------------------------------------------
 1/10=4,29=7,30=1,38=1,40=1/1,3;
 2/12=2,40=1/2;
 3/5=7,6=2,11=2,14=-4,25=1,30=1,67=1,70=2,71=2,74=-5,82=7,116=2,140=1/1,2,3;
 4/5=101/1;
 5/5=2,38=6,98=1/2;
 8/6=4,10=90,11=11/1;
 11/6=1,8=1,9=11,15=111,16=1/1,2,10;
 10/6=1/2;
 6/7=2,8=2,9=2,10=2,28=1/1;
 7/8=1,10=1,25=1/1,2,3,16;
 1/10=4,30=1/3;
 99//99;
 Structure from the checkpoint file:  "/wrk/irikura/Gau-29034.chk"
 ----------------------------------
 silicon monohydride, B3LYP/pcseg-2
 ----------------------------------
 Charge =  0 Multiplicity = 2
 Redundant internal coordinates found in file.  (old form).
 Si,0,0.,0.,0.098864612
 H,0,0.,0.,-1.431705612
 Recover connectivity data from disk.

 GradGradGradGradGradGradGradGradGradGradGradGradGradGradGradGradGradGrad
 Berny optimization.
 Initialization pass.
                           ----------------------------
                           !    Initial Parameters    !
                           ! (Angstroms and Degrees)  !
 --------------------------                            --------------------------
 ! Name  Definition              Value          Derivative Info.                !
 --------------------------------------------------------------------------------
 ! R1    R(1,2)                  1.5306         calculate D2E/DX2 analytically  !
 --------------------------------------------------------------------------------
 Trust Radius=3.00D-01 FncErr=1.00D-07 GrdErr=1.00D-07 EigMax=2.50D+02 EigMin=1.00D-04
 Number of steps in this run=      2 maximum allowed number of steps=      2.
 GradGradGradGradGradGradGradGradGradGradGradGradGradGradGradGradGradGrad

                          Input orientation:                          
 ---------------------------------------------------------------------
 Center     Atomic      Atomic             Coordinates (Angstroms)
 Number     Number       Type             X           Y           Z
 ---------------------------------------------------------------------
      1         14           0        0.000000    0.000000    0.098865
      2          1           0        0.000000    0.000000   -1.431706
 ---------------------------------------------------------------------
 Stoichiometry    HSi(2)
 Framework group  C*V[C*(HSi)]
 Deg. of freedom     1
 Full point group                 C*V     NOp   4
 Largest Abelian subgroup         C2V     NOp   4
 Largest concise Abelian subgroup C1      NOp   1
                         Standard orientation:                         
 ---------------------------------------------------------------------
 Center     Atomic      Atomic             Coordinates (Angstroms)
 Number     Number       Type             X           Y           Z
 ---------------------------------------------------------------------
      1         14           0        0.000000    0.000000    0.102038
      2          1           0        0.000000    0.000000   -1.428532
 ---------------------------------------------------------------------
 Rotational constants (GHZ):           0.0000000         221.7660775         221.7660775
 Basis read from chk: "/wrk/irikura/Gau-29034.chk" (5D, 7F)
 There are    26 symmetry adapted cartesian basis functions of A1  symmetry.
 There are     4 symmetry adapted cartesian basis functions of A2  symmetry.
 There are    12 symmetry adapted cartesian basis functions of B1  symmetry.
 There are    12 symmetry adapted cartesian basis functions of B2  symmetry.
 There are    22 symmetry adapted basis functions of A1  symmetry.
 There are     4 symmetry adapted basis functions of A2  symmetry.
 There are    11 symmetry adapted basis functions of B1  symmetry.
 There are    11 symmetry adapted basis functions of B2  symmetry.
    48 basis functions,    88 primitive gaussians,    54 cartesian basis functions
     8 alpha electrons        7 beta electrons
       nuclear repulsion energy         4.8403404410 Hartrees.
 NAtoms=    2 NActive=    2 NUniq=    2 SFac= 1.00D+00 NAtFMM=   60 NAOKFM=F Big=F
 Integral buffers will be    131072 words long.
 Raffenetti 2 integral format.
 Two-electron integral symmetry is turned on.
 One-electron integrals computed using PRISM.
 NBasis=    48 RedAO= T EigKep=  1.64D-02  NBF=    22     4    11    11
 NBsUse=    48 1.00D-06 EigRej= -1.00D+00 NBFU=    22     4    11    11
 Initial guess from the checkpoint file:  "/wrk/irikura/Gau-29034.chk"
 B after Tr=     0.000000    0.000000    0.000000
         Rot=    1.000000    0.000000    0.000000    0.000000 Ang=   0.00 deg.
 Initial guess orbital symmetries:
 Alpha Orbitals:
       Occupied  (SG) (SG) (PI) (PI) (SG) (SG) (SG) (PI)
       Virtual   (PI) (SG) (SG) (PI) (PI) (SG) (SG) (PI) (PI) (DLTA)
                 (DLTA) (SG) (PI) (PI) (SG) (PI) (PI) (SG) (PHI)
                 (PHI) (?A) (?A) (?A) (PI) (PI) (SG) (DLTA) (DLTA)
                 (PI) (PI) (SG) (DLTA) (DLTA) (PI) (PI) (SG) (PI)
                 (PI) (SG) (SG)
 Beta  Orbitals:
       Occupied  (SG) (SG) (PI) (SG) (PI) (SG) (SG)
       Virtual   (PI) (PI) (SG) (SG) (PI) (PI) (SG) (?A) (PI) (PI)
                 (?A) (?A) (?A) (PI) (PI) (SG) (PI) (PI) (?B) (?B)
                 (?B) (?B) (?C) (?C) (?C) (?C) (?B) (?D) (?D) (PI)
                 (PI) (?D) (DLTA) (DLTA) (PI) (PI) (SG) (PI) (PI)
                 (SG) (SG)
 Initial guess <Sx>= 0.0000 <Sy>= 0.0000 <Sz>= 0.5000 <S**2>= 0.7535 S= 0.5017
 Keep R1 and R2 ints in memory in symmetry-blocked form, NReq=11218352.
 Requested convergence on RMS density matrix=1.00D-08 within 128 cycles.
 Requested convergence on MAX density matrix=1.00D-06.
 Requested convergence on             energy=1.00D-06.
 No special actions if energy rises.
 SCF Done:  E(UB3LYP) =  -290.020379683     A.U. after    1 cycles
            NFock=  1  Conv=0.70D-09     -V/T= 2.0010
 <Sx>= 0.0000 <Sy>= 0.0000 <Sz>= 0.5000 <S**2>= 0.7535 S= 0.5017
 <L.S>=  0.00000000000    
 Annihilation of the first spin contaminant:
 S**2 before annihilation     0.7535,   after     0.7500
 DoSCS=F DFT=T ScalE2(SS,OS)=  1.000000  1.000000
 Range of M.O.s used for correlation:     1    48
 NBasis=    48 NAE=     8 NBE=     7 NFC=     0 NFV=     0
 NROrb=     48 NOA=     8 NOB=     7 NVA=    40 NVB=    41

 **** Warning!!: The smallest alpha delta epsilon is  0.65153629D-01

 Symmetrizing basis deriv contribution to polar:
 IMax=3 JMax=2 DiffMx= 0.00D+00
 G2DrvN: will do     3 centers at a time, making    1 passes.
 Calling FoFCou, ICntrl=  3107 FMM=F I1Cent=   0 AccDes= 0.00D+00.
 End of G2Drv F.D. properties file   721 does not exist.
 End of G2Drv F.D. properties file   722 does not exist.
 End of G2Drv F.D. properties file   788 does not exist.
          IDoAtm=11
          Differentiating once with respect to electric field.
                with respect to dipole field.
          Differentiating once with respect to nuclear coordinates.
 Keep R1 and R2 ints in memory in symmetry-blocked form, NReq=11178416.
          There are     9 degrees of freedom in the 1st order CPHF.  IDoFFX=6 NUNeed=     3.
      6 vectors produced by pass  0 Test12= 6.74D-15 1.11D-08 XBig12= 6.59D+01 5.51D+00.
 AX will form     6 AO Fock derivatives at one time.
      6 vectors produced by pass  1 Test12= 6.74D-15 1.11D-08 XBig12= 3.22D+00 8.54D-01.
      6 vectors produced by pass  2 Test12= 6.74D-15 1.11D-08 XBig12= 1.20D-01 1.45D-01.
      6 vectors produced by pass  3 Test12= 6.74D-15 1.11D-08 XBig12= 3.00D-03 1.99D-02.
      6 vectors produced by pass  4 Test12= 6.74D-15 1.11D-08 XBig12= 1.67D-05 2.02D-03.
      6 vectors produced by pass  5 Test12= 6.74D-15 1.11D-08 XBig12= 8.72D-08 1.47D-04.
      5 vectors produced by pass  6 Test12= 6.74D-15 1.11D-08 XBig12= 6.36D-10 8.91D-06.
      4 vectors produced by pass  7 Test12= 6.74D-15 1.11D-08 XBig12= 4.39D-12 7.30D-07.
      1 vectors produced by pass  8 Test12= 6.74D-15 1.11D-08 XBig12= 1.51D-14 3.31D-08.
 InvSVY:  IOpt=1 It=  1 EMax= 2.22D-16
 Solved reduced A of dimension    46 with     6 vectors.
 Isotropic polarizability for W=    0.000000       25.57 Bohr**3.
 End of Minotr F.D. properties file   721 does not exist.
 End of Minotr F.D. properties file   722 does not exist.
 End of Minotr F.D. properties file   788 does not exist.

 **********************************************************************

            Population analysis using the SCF Density.

 **********************************************************************

 Orbital symmetries:
 Alpha Orbitals:
       Occupied  (SG) (SG) (PI) (PI) (SG) (SG) (SG) (PI)
       Virtual   (PI) (SG) (SG) (PI) (PI) (SG) (SG) (PI) (PI) (DLTA)
                 (DLTA) (SG) (PI) (PI) (SG) (PI) (PI) (SG) (PHI)
                 (PHI) (?A) (?A) (?A) (PI) (PI) (SG) (DLTA) (DLTA)
                 (PI) (PI) (SG) (DLTA) (DLTA) (PI) (PI) (SG) (PI)
                 (PI) (SG) (SG)
 Beta  Orbitals:
       Occupied  (SG) (SG) (PI) (SG) (PI) (SG) (SG)
       Virtual   (PI) (PI) (SG) (SG) (PI) (PI) (SG) (?A) (PI) (PI)
                 (?A) (?A) (?A) (PI) (PI) (SG) (PI) (PI) (?B) (?B)
                 (?B) (?B) (?C) (?C) (?C) (?C) (?B) (?D) (?D) (PI)
                 (PI) (?D) (DLTA) (DLTA) (PI) (PI) (SG) (PI) (PI)
                 (SG) (SG)
 Unable to determine electronic state:  partially filled degenerate orbitals.
 Alpha  occ. eigenvalues --  -66.12461  -5.30131  -3.66333  -3.66004  -3.65340
 Alpha  occ. eigenvalues --   -0.49022  -0.28184  -0.19116
 Alpha virt. eigenvalues --   -0.12600   0.02693   0.10439   0.14147   0.14912
 Alpha virt. eigenvalues --    0.17069   0.34654   0.40853   0.41475   0.44892
 Alpha virt. eigenvalues --    0.45355   0.61950   0.88272   0.88349   1.02987
 Alpha virt. eigenvalues --    1.06079   1.06304   1.28285   1.56748   1.56837
 Alpha virt. eigenvalues --    1.56912   1.57212   1.57506   1.73114   1.73308
 Alpha virt. eigenvalues --    1.96512   2.97166   2.97276   3.02612   3.03498
 Alpha virt. eigenvalues --    3.29293   3.83995   3.84011   4.07139   4.07356
 Alpha virt. eigenvalues --    4.30256   4.44617   4.44817   4.90030  12.76476
  Beta  occ. eigenvalues --  -66.12136  -5.29780  -3.66154  -3.65154  -3.64826
  Beta  occ. eigenvalues --   -0.46631  -0.27043
  Beta virt. eigenvalues --   -0.11692  -0.08696   0.03323   0.10731   0.15155
  Beta virt. eigenvalues --    0.16733   0.17795   0.35747   0.41661   0.44172
  Beta virt. eigenvalues --    0.49160   0.49177   0.62990   0.88324   0.89847
  Beta virt. eigenvalues --    1.03537   1.06751   1.09485   1.28769   1.57160
  Beta virt. eigenvalues --    1.59930   1.59933   1.60786   1.60821   1.73504
  Beta virt. eigenvalues --    1.76106   1.97474   2.98055   2.98093   3.02612
  Beta virt. eigenvalues --    3.04343   3.29973   3.84052   3.84052   4.06954
  Beta virt. eigenvalues --    4.07643   4.30345   4.44464   4.45141   4.89953
  Beta virt. eigenvalues --   12.77074
          Condensed to atoms (all electrons):
               1          2
     1  Si  13.629974   0.209022
     2  H    0.209022   0.951981
          Atomic-Atomic Spin Densities.
               1          2
     1  Si   1.035130  -0.014377
     2  H   -0.014377  -0.006376
 Mulliken charges and spin densities:
               1          2
     1  Si   0.161003   1.020753
     2  H   -0.161003  -0.020753
 Sum of Mulliken charges =   0.00000   1.00000
 Mulliken charges and spin densities with hydrogens summed into heavy atoms:
               1          2
     1  Si   0.000000   1.000000
 APT charges:
               1
     1  Si   0.178970
     2  H   -0.178970
 Sum of APT charges =   0.00000
 APT charges with hydrogens summed into heavy atoms:
               1
     1  Si   0.000000
 Electronic spatial extent (au):  <R**2>=             41.2649
 Charge=              0.0000 electrons
 Dipole moment (field-independent basis, Debye):
    X=              0.0000    Y=              0.0000    Z=             -0.1364  Tot=              0.1364
 Quadrupole moment (field-independent basis, Debye-Ang):
   XX=            -11.6915   YY=            -16.4500   ZZ=            -16.8591
   XY=              0.0000   XZ=              0.0000   YZ=              0.0000
 Traceless Quadrupole moment (field-independent basis, Debye-Ang):
   XX=              3.3087   YY=             -1.4498   ZZ=             -1.8589
   XY=              0.0000   XZ=              0.0000   YZ=              0.0000
 Octapole moment (field-independent basis, Debye-Ang**2):
  XXX=              0.0000  YYY=              0.0000  ZZZ=              1.3199  XYY=              0.0000
  XXY=              0.0000  XXZ=             -0.2321  XZZ=              0.0000  YZZ=              0.0000
  YYZ=             -0.6483  XYZ=              0.0000
 Hexadecapole moment (field-independent basis, Debye-Ang**3):
 XXXX=            -17.1351 YYYY=            -36.8398 ZZZZ=            -49.5210 XXXY=              0.0000
 XXXZ=              0.0000 YYYX=              0.0000 YYYZ=              0.0000 ZZZX=              0.0000
 ZZZY=              0.0000 XXYY=             -8.9938 XXZZ=            -10.8848 YYZZ=            -14.2181
 XXYZ=              0.0000 YYXZ=              0.0000 ZZXY=              0.0000
 N-N= 4.840340440990D+00 E-N=-7.007975837205D+02  KE= 2.897449074085D+02
 Symmetry A1   KE= 2.397251437191D+02
 Symmetry A2   KE= 4.642978845217D-35
 Symmetry B1   KE= 2.448498561878D+01
 Symmetry B2   KE= 2.553477807055D+01
 Symmetry A1   SP= 1.261882579765D-15
 Symmetry A2   SP=-2.216235206717D-35
 Symmetry B1   SP=-2.243125356413D-15
 Symmetry B2   SP= 1.000000000000D+00
  Exact polarizability:  19.938   0.000  22.791   0.000  -0.000  33.976
 Approx polarizability:  32.216  -0.000  26.024  -0.000  -0.000  43.195
                          Isotropic Fermi Contact Couplings
        Atom                 a.u.       MegaHertz       Gauss      10(-4) cm-1
     1  Si(29)             0.05166     -45.91446     -16.38342     -15.31541
     2  H(1)              -0.00536     -23.95720      -8.54852      -7.99126
 --------------------------------------------------------
       Center         ----  Spin Dipole Couplings  ----
                      3XX-RR        3YY-RR        3ZZ-RR
 --------------------------------------------------------
     1   Atom       -0.959860      1.910294     -0.950435
     2   Atom       -0.024585      0.009664      0.014921
 --------------------------------------------------------
                        XY            XZ            YZ
 --------------------------------------------------------
     1   Atom        0.000000      0.000000      0.000000
     2   Atom        0.000000      0.000000      0.000000
 --------------------------------------------------------


 ---------------------------------------------------------------------------------
              Anisotropic Spin Dipole Couplings in Principal Axis System
 ---------------------------------------------------------------------------------

       Atom             a.u.   MegaHertz   Gauss  10(-4) cm-1        Axes

              Baa    -0.9599   101.826    36.334    33.965  1.0000  0.0000  0.0000
     1 Si(29) Bbb    -0.9504   100.826    35.977    33.632  0.0000  0.0000  1.0000
              Bcc     1.9103  -202.652   -72.311   -67.597 -0.0000  1.0000  0.0000
 
              Baa    -0.0246   -13.118    -4.681    -4.376  1.0000  0.0000  0.0000
     2 H(1)   Bbb     0.0097     5.156     1.840     1.720 -0.0000  1.0000  0.0000
              Bcc     0.0149     7.961     2.841     2.656  0.0000  0.0000  1.0000
 

 ---------------------------------------------------------------------------------

 Calling FoFJK, ICntrl=    100127 FMM=F ISym2X=1 I1Cent= 0 IOpClX= 1 NMat=1 NMatS=1 NMatT=0.
 Full mass-weighted force constant matrix:
 Low frequencies ---   -0.0057   -0.0053    0.0007   24.3857   36.2915 2000.5456
 Diagonal vibrational polarizability:
        0.0000000       0.0000000       2.2200206
 Harmonic frequencies (cm**-1), IR intensities (KM/Mole), Raman scattering
 activities (A**4/AMU), depolarization ratios for plane and unpolarized
 incident light, reduced masses (AMU), force constants (mDyne/A),
 and normal coordinates:
                      1
                     SG
 Frequencies --   2000.5456
 Red. masses --      1.0428
 Frc consts  --      2.4589
 IR Inten    --    330.1572
  Atom  AN      X      Y      Z
     1  14    -0.00  -0.00  -0.04
     2   1    -0.00  -0.00   1.00

 -------------------
 - Thermochemistry -
 -------------------
 Temperature   298.150 Kelvin.  Pressure   1.00000 Atm.
 Atom     1 has atomic number 14 and mass  27.97693
 Atom     2 has atomic number  1 and mass   1.00783
 Molecular mass:    28.98475 amu.
 Principal axes and moments of inertia in atomic units:
                           1         2         3
     Eigenvalues --     0.00000   8.13804   8.13804
           X            0.00000  -0.00000   1.00000
           Y            0.00000   1.00000   0.00000
           Z            1.00000   0.00000   0.00000
 This molecule is a prolate symmetric top.
 Rotational symmetry number  1.
 Rotational temperature (Kelvin)     10.64309
 Rotational constant (GHZ):         221.766078
 Zero-point vibrational energy      11965.9 (Joules/Mol)
                                    2.85992 (Kcal/Mol)
 Vibrational temperatures:   2878.34
          (Kelvin)
 
 Zero-point correction=                           0.004558 (Hartree/Particle)
 Thermal correction to Energy=                    0.006919
 Thermal correction to Enthalpy=                  0.007863
 Thermal correction to Gibbs Free Energy=        -0.014001
 Sum of electronic and zero-point Energies=           -290.015822
 Sum of electronic and thermal Energies=              -290.013461
 Sum of electronic and thermal Enthalpies=            -290.012517
 Sum of electronic and thermal Free Energies=         -290.034380
 
                     E (Thermal)             CV                S
                      KCal/Mol        Cal/Mol-Kelvin    Cal/Mol-Kelvin
 Total                    4.342              4.980             46.015
 Electronic               0.000              0.000              1.377
 Translational            0.889              2.981             36.027
 Rotational               0.592              1.987              8.610
 Vibrational              2.860              0.012              0.001
                       Q            Log10(Q)             Ln(Q)
 Total Bot       0.275293D+07          6.439794         14.828175
 Total V=0       0.343663D+09          8.536133         19.655173
 Vib (Bot)       0.801105D-02         -2.096311         -4.826934
 Vib (V=0)       0.100006D+01          0.000028          0.000064
 Electronic      0.200000D+01          0.301030          0.693147
 Translational   0.613350D+07          6.787708         15.629276
 Rotational      0.280135D+02          1.447367          3.332686
 ***** Axes restored to original set *****
 -------------------------------------------------------------------
 Center     Atomic                   Forces (Hartrees/Bohr)
 Number     Number              X              Y              Z
 -------------------------------------------------------------------
      1       14          -0.000000000   -0.000000000   -0.000111317
      2        1          -0.000000000   -0.000000000    0.000111317
 -------------------------------------------------------------------
 Cartesian Forces:  Max     0.000111317 RMS     0.000064269
 FormGI is forming the generalized inverse of G from B-inverse, IUseBI=4.

 GradGradGradGradGradGradGradGradGradGradGradGradGradGradGradGradGradGrad
 Berny optimization.
 Internal  Forces:  Max     0.000111317 RMS     0.000111317
 Search for a local minimum.
 Step number   1 out of a maximum of    2
 All quantities printed in internal units (Hartrees-Bohrs-Radians)
 Second derivative matrix not updated -- analytic derivatives used.
 The second derivative matrix:
                          R1
           R1           0.14733
 ITU=  0
     Eigenvalues ---    0.14733
 Angle between quadratic step and forces=   0.00 degrees.
 Linear search not attempted -- first point.
 Iteration  1 RMS(Cart)=  0.00053425 RMS(Int)=  0.00000000
 Iteration  2 RMS(Cart)=  0.00000000 RMS(Int)=  0.00000000
 ClnCor:  largest displacement from symmetrization is 0.00D+00 for atom     0.
 Variable       Old X    -DE/DX   Delta X   Delta X   Delta X     New X
                                 (Linear)    (Quad)   (Total)
    R1        2.89236  -0.00011   0.00000  -0.00076  -0.00076   2.89160
         Item               Value     Threshold  Converged?
 Maximum Force            0.000111     0.000450     YES
 RMS     Force            0.000111     0.000300     YES
 Maximum Displacement     0.000378     0.001800     YES
 RMS     Displacement     0.000534     0.001200     YES
 Predicted change in Energy=-4.205233D-08
 Optimization completed.
    -- Stationary point found.
                           ----------------------------
                           !   Optimized Parameters   !
                           ! (Angstroms and Degrees)  !
 --------------------------                            --------------------------
 ! Name  Definition              Value          Derivative Info.                !
 --------------------------------------------------------------------------------
 ! R1    R(1,2)                  1.5306         -DE/DX =   -0.0001              !
 --------------------------------------------------------------------------------
 GradGradGradGradGradGradGradGradGradGradGradGradGradGradGradGradGradGrad


 ----------------------------------------------------------------------

 Electric dipole moment (input orientation):
 (Debye = 10**-18 statcoulomb cm , SI units = C m)
                  (au)            (Debye)         (10**-30 SI)
   Tot        0.536721D-01      0.136421D+00      0.455051D+00
   x          0.000000D+00      0.000000D+00      0.000000D+00
   y          0.000000D+00      0.000000D+00      0.000000D+00
   z         -0.536721D-01     -0.136421D+00     -0.455051D+00

 Dipole polarizability, Alpha (input orientation).
 (esu units = cm**3 , SI units = C**2 m**2 J**-1)
 Alpha(0;0):
               (au)            (10**-24 esu)      (10**-40 SI)
   iso        0.255684D+02      0.378885D+01      0.421567D+01
   aniso      0.128514D+02      0.190439D+01      0.211892D+01
   xx         0.199380D+02      0.295451D+01      0.328733D+01
   yx         0.000000D+00      0.000000D+00      0.000000D+00
   yy         0.227911D+02      0.337729D+01      0.375775D+01
   zx         0.000000D+00      0.000000D+00      0.000000D+00
   zy         0.000000D+00      0.000000D+00      0.000000D+00
   zz         0.339762D+02      0.503476D+01      0.560192D+01

 ----------------------------------------------------------------------

 Dipole orientation:
    14          0.00000000          0.00000000         -0.18682704
     1          0.00000000          0.00000000          2.70553150

 Electric dipole moment (dipole orientation):
 (Debye = 10**-18 statcoulomb cm , SI units = C m)
                  (au)            (Debye)         (10**-30 SI)
   Tot        0.536721D-01      0.136421D+00      0.455051D+00
   x          0.000000D+00      0.000000D+00      0.000000D+00
   y          0.000000D+00      0.000000D+00      0.000000D+00
   z          0.536721D-01      0.136421D+00      0.455051D+00

 Dipole polarizability, Alpha (dipole orientation).
 (esu units = cm**3 , SI units = C**2 m**2 J**-1)
 Alpha(0;0):
               (au)            (10**-24 esu)      (10**-40 SI)
   iso        0.255684D+02      0.378885D+01      0.421567D+01
   aniso      0.128514D+02      0.190439D+01      0.211892D+01
   xx         0.199380D+02      0.295451D+01      0.328733D+01
   yx         0.000000D+00      0.000000D+00      0.000000D+00
   yy         0.227911D+02      0.337729D+01      0.375775D+01
   zx         0.000000D+00      0.000000D+00      0.000000D+00
   zy         0.000000D+00      0.000000D+00      0.000000D+00
   zz         0.339762D+02      0.503476D+01      0.560192D+01

 ----------------------------------------------------------------------
 1\1\GINC-GAMBA\Freq\UB3LYP\Gen\H1Si1(2)\IRIKURA\17-Jun-2022\0\\#N Geom
 =AllCheck Guess=TCheck SCRF=Check GenChk UB3LYP/ChkBas Freq\\silicon m
 onohydride, B3LYP/pcseg-2\\0,2\Si,0.,0.,0.098864612\H,0.,0.,-1.4317056
 12\\Version=ES64L-G16RevB.01\HF=-290.0203797\S2=0.753467\S2-1=0.\S2A=0
 .750001\RMSD=6.953e-10\RMSF=6.427e-05\ZeroPoint=0.0045576\Thermal=0.00
 69186\Dipole=0.,0.,-0.0536721\DipoleDeriv=-0.0185046,0.,0.,0.,-0.01855
 86,0.,0.,0.,0.5739744,0.0185046,0.,0.,0.,0.0185586,0.,0.,0.,-0.5739744
 \Polar=19.9379886,0.,22.791112,0.,0.,33.9762264\Quadrupole=2.4599269,-
 1.0778559,-1.382071,0.,0.,0.\PG=C*V [C*(H1Si1)]\NImag=0\\0.00004849,0.
 ,0.00002189,0.,0.,0.14733432,-0.00004849,0.,0.,0.00004849,0.,-0.000021
 89,0.,0.,0.00002189,0.,0.,-0.14733432,0.,0.,0.14733432\\0.,0.,0.000111
 32,0.,0.,-0.00011132\\\@


 THE REASON MAN'S BEST FRIEND IS A DOG IS BECAUSE
 HE WAGS HIS TAIL INSTEAD OF HIS TONGUE.
 Job cpu time:       0 days  0 hours  0 minutes 54.2 seconds.
 Elapsed time:       0 days  0 hours  0 minutes  4.6 seconds.
 File lengths (MBytes):  RWF=      6 Int=      0 D2E=      0 Chk=      1 Scr=      1
 Normal termination of Gaussian 16 at Fri Jun 17 20:45:53 2022.
