 Entering Gaussian System, Link 0=g16
 AtFile(1): /home/irikura/basis/pcseg2.gbs
            -H     0
            S   4   1.00
                  0.754732D+02           0.427821D-02
                  0.113575D+02           0.328672D-01
                  0.260081D+01           0.159578D+00
                  0.735503D+00           0.500000D+00
            S   1   1.00
                  0.231761D+00           1.0000000
            S   1   1.00
                  0.741675D-01           1.0000000
            P   1   1.00
                  0.160000D+01           1.0000000
            P   1   1.00
                  0.450000D+00           1.0000000
            D   1   1.00
                  0.125000D+01           1.0000000
            ****
            -C     0
            S   7   1.00
                  0.731999D+04           0.695369D-03
                  0.109818D+04           0.537138D-02
                  0.250014D+03           0.274734D-01
                  0.707586D+02           0.105078D+00
                  0.228595D+02           0.291262D+00
                  0.803936D+01           0.500000D+00
                  0.289309D+01           0.362224D+00
            S   2   1.00
                  0.521640D+01          -0.957844D-01
                  0.556124D+00           0.500000D+00
            S   1   1.00
                  0.228813D+00           1.0000000
            S   1   1.00
                  0.936338D-01           1.0000000
            P   4   1.00
                  0.339855D+02           0.818395D-02
                  0.772957D+01           0.586921D-01
                  0.224954D+01           0.222514D+00
                  0.767681D+00           0.500000D+00
            P   1   1.00
                  0.263283D+00           1.0000000
            P   1   1.00
                  0.848744D-01           1.0000000
            D   1   1.00
                  0.140000D+01           1.0000000
            D   1   1.00
                  0.450000D+00           1.0000000
            F   1   1.00
                  0.950000D+00           1.0000000
            ****
            -O     0
            S   7   1.00
                  0.135887D+05           0.665492D-03
                  0.203847D+04           0.514222D-02
                  0.464041D+03           0.263472D-01
                  0.131339D+03           0.101500D+00
                  0.425340D+02           0.285877D+00
                  0.150429D+02           0.500000D+00
                  0.546616D+01           0.368211D+00
            S   2   1.00
                  0.100915D+02          -0.100084D+00
                  0.110429D+01           0.500000D+00
            S   1   1.00
                  0.448082D+00           1.0000000
            S   1   1.00
                  0.175325D+00           1.0000000
            P   4   1.00
                  0.608220D+02           0.908253D-02
                  0.140332D+02           0.645878D-01
                  0.418244D+01           0.241502D+00
                  0.142490D+01           0.500000D+00
            P   1   1.00
                  0.478741D+00           1.0000000
            P   1   1.00
                  0.146257D+00           1.0000000
            D   1   1.00
                  0.220000D+01           1.0000000
            D   1   1.00
                  0.650000D+00           1.0000000
            F   1   1.00
                  0.110000D+01           1.0000000
            ****
            -N     0
            S   7   1.00
                  0.101643D+05           0.682757D-03
                  0.152481D+04           0.527488D-02
                  0.347119D+03           0.270037D-01
                  0.982389D+02           0.103673D+00
                  0.317799D+02           0.289575D+00
                  0.112240D+02           0.500000D+00
                  0.406611D+01           0.364621D+00
            S   2   1.00
                  0.747898D+01          -0.975681D-01
                  0.805040D+00           0.500000D+00
            S   1   1.00
                  0.324626D+00           1.0000000
            S   1   1.00
                  0.128132D+00           1.0000000
            P   4   1.00
                  0.482704D+02           0.829547D-02
                  0.110815D+02           0.596223D-01
                  0.326643D+01           0.227889D+00
                  0.111680D+01           0.500000D+00
            P   1   1.00
                  0.382049D+00           1.0000000
            P   1   1.00
                  0.121222D+00           1.0000000
            D   1   1.00
                  0.180000D+01           1.0000000
            D   1   1.00
                  0.550000D+00           1.0000000
            F   1   1.00
                  0.102000D+01           1.0000000
            ****
            -F     0
            S   7   1.00
                  0.174507D+05           0.655972D-03
                  0.261768D+04           0.506944D-02
                  0.595857D+03           0.259899D-01
                  0.168651D+03           0.100353D+00
                  0.546654D+02           0.284095D+00
                  0.193717D+02           0.500000D+00
                  0.706202D+01           0.370721D+00
            S   2   1.00
                  0.131197D+02          -0.101997D+00
                  0.145046D+01           0.500000D+00
            S   1   1.00
                  0.588255D+00           1.0000000
            S   1   1.00
                  0.227960D+00           1.0000000
            P   4   1.00
                  0.779407D+02           0.931135D-02
                  0.180425D+02           0.663964D-01
                  0.542342D+01           0.246386D+00
                  0.184876D+01           0.500000D+00
            P   1   1.00
                  0.617455D+00           1.0000000
            P   1   1.00
                  0.185496D+00           1.0000000
            D   1   1.00
                  0.280000D+01           1.0000000
            D   1   1.00
                  0.800000D+00           1.0000000
            F   1   1.00
                  0.120000D+01           1.0000000
            ****
            -Cl     0
            S   8   1.00
                  0.154272D+06           0.222473D-03
                  0.231232D+05           0.172590D-02
                  0.526257D+04           0.899286D-02
                  0.148995D+04           0.367724D-01
                  0.485417D+03           0.121446D+00
                  0.174634D+03           0.304148D+00
                  0.672393D+02           0.500000D+00
                  0.265780D+02           0.360252D+00
            S   3   1.00
                  0.131826D+03          -0.531330D-01
                  0.400703D+02          -0.233346D+00
                  0.789448D+01           0.500000D+00
            S   2   1.00
                  0.427711D+01           0.500000D+00
                  0.196233D+01           0.370517D+00
            S   1   1.00
                  0.520793D+00           1.0000000
            S   1   1.00
                  0.181633D+00           1.0000000
            P   7   1.00
                  0.124440D+04           0.988206D-03
                  0.295109D+03           0.829674D-02
                  0.947224D+02           0.430906D-01
                  0.352588D+02           0.148443D+00
                  0.144211D+02           0.344744D+00
                  0.610371D+01           0.500000D+00
                  0.258886D+01           0.348278D+00
            P   2   1.00
                  0.109447D+02          -0.196768D-01
                  0.104413D+01           0.500000D+00
            P   1   1.00
                  0.376184D+00           1.0000000
            P   1   1.00
                  0.120613D+00           1.0000000
            D   1   1.00
                  0.231000D+01           1.0000000
            D   1   1.00
                  0.520000D+00           1.0000000
            F   1   1.00
                  0.720000D+00           1.0000000
            ****
            -S     0
            S   8   1.00
                  0.134700D+06           0.226231D-03
                  0.201904D+05           0.175488D-02
                  0.459528D+04           0.914190D-02
                  0.130109D+04           0.373551D-01
                  0.423902D+03           0.123121D+00
                  0.152485D+03           0.306801D+00
                  0.586925D+02           0.500000D+00
                  0.231461D+02           0.354358D+00
            S   3   1.00
                  0.116327D+03          -0.491772D-01
                  0.352841D+02          -0.215962D+00
                  0.677831D+01           0.500000D+00
            S   2   1.00
                  0.360404D+01           0.500000D+00
                  0.164871D+01           0.366278D+00
            S   1   1.00
                  0.421821D+00           1.0000000
            S   1   1.00
                  0.147554D+00           1.0000000
            P   7   1.00
                  0.104863D+04           0.105273D-02
                  0.248717D+03           0.879338D-02
                  0.797887D+02           0.453358D-01
                  0.296023D+02           0.154476D+00
                  0.120627D+02           0.352366D+00
                  0.507628D+01           0.500000D+00
                  0.213375D+01           0.346429D+00
            P   2   1.00
                  0.928958D+01          -0.185932D-01
                  0.837819D+00           0.500000D+00
            P   1   1.00
                  0.301495D+00           1.0000000
            P   1   1.00
                  0.974740D-01           1.0000000
            D   1   1.00
                  0.210000D+01           1.0000000
            D   1   1.00
                  0.480000D+00           1.0000000
            F   1   1.00
                  0.660000D+00           1.0000000
            ****
            
 Initial command:
 /usr/local/apps/g16_b01_avx/g16/l1.exe "/wrk/irikura/Gau-20172.inp" -scrdir="/wrk/irikura/"
 Entering Link 1 = /usr/local/apps/g16_b01_avx/g16/l1.exe PID=     20174.
  
 Copyright (c) 1988-2017, Gaussian, Inc.  All Rights Reserved.
  
 This is part of the Gaussian(R) 16 program.  It is based on
 the Gaussian(R) 09 system (copyright 2009, Gaussian, Inc.),
 the Gaussian(R) 03 system (copyright 2003, Gaussian, Inc.),
 the Gaussian(R) 98 system (copyright 1998, Gaussian, Inc.),
 the Gaussian(R) 94 system (copyright 1995, Gaussian, Inc.),
 the Gaussian 92(TM) system (copyright 1992, Gaussian, Inc.),
 the Gaussian 90(TM) system (copyright 1990, Gaussian, Inc.),
 the Gaussian 88(TM) system (copyright 1988, Gaussian, Inc.),
 the Gaussian 86(TM) system (copyright 1986, Carnegie Mellon
 University), and the Gaussian 82(TM) system (copyright 1983,
 Carnegie Mellon University). Gaussian is a federally registered
 trademark of Gaussian, Inc.
  
 This software contains proprietary and confidential information,
 including trade secrets, belonging to Gaussian, Inc.
  
 This software is provided under written license and may be
 used, copied, transmitted, or stored only in accord with that
 written license.
  
 The following legend is applicable only to US Government
 contracts under FAR:
  
                    RESTRICTED RIGHTS LEGEND
  
 Use, reproduction and disclosure by the US Government is
 subject to restrictions as set forth in subparagraphs (a)
 and (c) of the Commercial Computer Software - Restricted
 Rights clause in FAR 52.227-19.
  
 Gaussian, Inc.
 340 Quinnipiac St., Bldg. 40, Wallingford CT 06492
  
  
 ---------------------------------------------------------------
 Warning -- This program may not be used in any manner that
 competes with the business of Gaussian, Inc. or will provide
 assistance to any competitor of Gaussian, Inc.  The licensee
 of this program is prohibited from giving any competitor of
 Gaussian, Inc. access to this program.  By using this program,
 the user acknowledges that Gaussian, Inc. is engaged in the
 business of creating and licensing software in the field of
 computational chemistry and represents and warrants to the
 licensee that it is not a competitor of Gaussian, Inc. and that
 it will not use this program in any manner prohibited above.
 ---------------------------------------------------------------
  

 Cite this work as:
 Gaussian 16, Revision B.01,
 M. J. Frisch, G. W. Trucks, H. B. Schlegel, G. E. Scuseria, 
 M. A. Robb, J. R. Cheeseman, G. Scalmani, V. Barone, 
 G. A. Petersson, H. Nakatsuji, X. Li, M. Caricato, A. V. Marenich, 
 J. Bloino, B. G. Janesko, R. Gomperts, B. Mennucci, H. P. Hratchian, 
 J. V. Ortiz, A. F. Izmaylov, J. L. Sonnenberg, D. Williams-Young, 
 F. Ding, F. Lipparini, F. Egidi, J. Goings, B. Peng, A. Petrone, 
 T. Henderson, D. Ranasinghe, V. G. Zakrzewski, J. Gao, N. Rega, 
 G. Zheng, W. Liang, M. Hada, M. Ehara, K. Toyota, R. Fukuda, 
 J. Hasegawa, M. Ishida, T. Nakajima, Y. Honda, O. Kitao, H. Nakai, 
 T. Vreven, K. Throssell, J. A. Montgomery, Jr., J. E. Peralta, 
 F. Ogliaro, M. J. Bearpark, J. J. Heyd, E. N. Brothers, K. N. Kudin, 
 V. N. Staroverov, T. A. Keith, R. Kobayashi, J. Normand, 
 K. Raghavachari, A. P. Rendell, J. C. Burant, S. S. Iyengar, 
 J. Tomasi, M. Cossi, J. M. Millam, M. Klene, C. Adamo, R. Cammi, 
 J. W. Ochterski, R. L. Martin, K. Morokuma, O. Farkas, 
 J. B. Foresman, and D. J. Fox, Gaussian, Inc., Wallingford CT, 2016.
 
 ******************************************
 Gaussian 16:  ES64L-G16RevB.01 20-Dec-2017
                24-Feb-2022 
 ******************************************
 %mem=500mw
 %nprocs=4
 Will use up to    4 processors via shared memory.
 --------------------
 # b3lyp/gen opt freq
 --------------------
 1/18=20,19=15,26=3,38=1/1,3;
 2/9=110,12=2,17=6,18=5,40=1/2;
 3/5=7,11=2,25=1,30=1,71=1,74=-5/1,2,3;
 4//1;
 5/5=2,38=5/2;
 6/7=2,8=2,9=2,10=2,28=1/1;
 7//1,2,3,16;
 1/18=20,19=15,26=3/3(2);
 2/9=110/2;
 99//99;
 2/9=110/2;
 3/5=7,6=1,11=2,25=1,30=1,71=1,74=-5,82=7/1,2,3;
 4/5=5,16=3,69=1/1;
 5/5=2,38=5/2;
 7//1,2,3,16;
 1/18=20,19=15,26=3/3(-5);
 2/9=110/2;
 6/7=2,8=2,9=2,10=2,19=2,28=1/1;
 99/9=1/99;
 ------------------
 SO2, B3LYP/pcseg-2
 ------------------
 Symbolic Z-matrix:
 Charge =  0 Multiplicity = 1
 S
 O                    1    r
 O                    1    r        2    a
       Variables:
  r                     1.7                      
  a                   120.                       
 

 GradGradGradGradGradGradGradGradGradGradGradGradGradGradGradGradGradGrad
 Berny optimization.
 Initialization pass.
                           ----------------------------
                           !    Initial Parameters    !
                           ! (Angstroms and Degrees)  !
 --------------------------                            --------------------------
 ! Name  Definition              Value          Derivative Info.                !
 --------------------------------------------------------------------------------
 ! R1    R(1,2)                  1.7            estimate D2E/DX2                !
 ! R2    R(1,3)                  1.7            estimate D2E/DX2                !
 ! A1    A(2,1,3)              120.0            estimate D2E/DX2                !
 --------------------------------------------------------------------------------
 Trust Radius=3.00D-01 FncErr=1.00D-07 GrdErr=1.00D-06 EigMax=2.50D+02 EigMin=1.00D-04
 Number of steps in this run=     20 maximum allowed number of steps=    100.
 GradGradGradGradGradGradGradGradGradGradGradGradGradGradGradGradGradGrad

                          Input orientation:                          
 ---------------------------------------------------------------------
 Center     Atomic      Atomic             Coordinates (Angstroms)
 Number     Number       Type             X           Y           Z
 ---------------------------------------------------------------------
      1         16           0        0.000000    0.000000    0.000000
      2          8           0        0.000000    0.000000    1.700000
      3          8           0        1.472243    0.000000   -0.850000
 ---------------------------------------------------------------------
                    Distance matrix (angstroms):
                    1          2          3
     1  S    0.000000
     2  O    1.700000   0.000000
     3  O    1.700000   2.944486   0.000000
 Stoichiometry    O2S
 Framework group  C2V[C2(S),SGV(O2)]
 Deg. of freedom     2
 Full point group                 C2V     NOp   4
 Largest Abelian subgroup         C2V     NOp   4
 Largest concise Abelian subgroup C2      NOp   2
                         Standard orientation:                         
 ---------------------------------------------------------------------
 Center     Atomic      Atomic             Coordinates (Angstroms)
 Number     Number       Type             X           Y           Z
 ---------------------------------------------------------------------
      1         16           0        0.000000   -0.000000    0.425000
      2          8           0       -0.000000    1.472243   -0.425000
      3          8           0       -0.000000   -1.472243   -0.425000
 ---------------------------------------------------------------------
 Rotational constants (GHZ):          43.7439513           7.2886345           6.2476488
 General basis read from cards:  (5D, 7F)
 There are    42 symmetry adapted cartesian basis functions of A1  symmetry.
 There are    14 symmetry adapted cartesian basis functions of A2  symmetry.
 There are    20 symmetry adapted cartesian basis functions of B1  symmetry.
 There are    33 symmetry adapted cartesian basis functions of B2  symmetry.
 There are    35 symmetry adapted basis functions of A1  symmetry.
 There are    13 symmetry adapted basis functions of A2  symmetry.
 There are    18 symmetry adapted basis functions of B1  symmetry.
 There are    28 symmetry adapted basis functions of B2  symmetry.
    94 basis functions,   172 primitive gaussians,   109 cartesian basis functions
    16 alpha electrons       16 beta electrons
       nuclear repulsion energy        91.1898145451 Hartrees.
 NAtoms=    3 NActive=    3 NUniq=    2 SFac= 2.25D+00 NAtFMM=   60 NAOKFM=F Big=F
 Integral buffers will be    131072 words long.
 Raffenetti 2 integral format.
 Two-electron integral symmetry is turned on.
 One-electron integrals computed using PRISM.
 NBasis=    94 RedAO= T EigKep=  8.48D-03  NBF=    35    13    18    28
 NBsUse=    94 1.00D-06 EigRej= -1.00D+00 NBFU=    35    13    18    28
 ExpMin= 9.75D-02 ExpMax= 1.35D+05 ExpMxC= 1.30D+03 IAcc=3 IRadAn=         5 AccDes= 0.00D+00
 Harris functional with IExCor=  402 and IRadAn=       5 diagonalized for initial guess.
 HarFok:  IExCor=  402 AccDes= 0.00D+00 IRadAn=         5 IDoV= 1 UseB2=F ITyADJ=14
 ICtDFT=  3500011 ScaDFX=  1.000000  1.000000  1.000000  1.000000
 FoFCou: FMM=F IPFlag=           0 FMFlag=      100000 FMFlg1=           0
         NFxFlg=           0 DoJE=T BraDBF=F KetDBF=T FulRan=T
         wScrn=  0.000000 ICntrl=       500 IOpCl=  0 I1Cent=   200000004 NGrid=           0
         NMat0=    1 NMatS0=      1 NMatT0=    0 NMatD0=    1 NMtDS0=    0 NMtDT0=    0
 Petite list used in FoFCou.
 Initial guess orbital symmetries:
       Occupied  (A1) (B2) (A1) (A1) (B2) (A1) (B1) (A1) (B2) (A1)
                 (B2) (A1) (B1) (A2) (B2) (A1)
       Virtual   (B1) (A1) (B2) (A1) (B2) (B1) (A1) (A1) (B2) (A2)
                 (B1) (A1) (B2) (A1) (A2) (B1) (A1) (B2) (B2) (A1)
                 (B1) (B2) (A2) (A1) (B2) (B1) (A2) (A1) (B1) (A1)
                 (A1) (B2) (B2) (B1) (A1) (A2) (B1) (B2) (B2) (A1)
                 (A1) (A2) (B1) (B2) (A1) (B2) (A1) (B1) (A1) (A2)
                 (B2) (A1) (B2) (A2) (B1) (A1) (A2) (B2) (A1) (B1)
                 (B2) (A1) (B1) (A2) (B2) (A1) (B2) (A2) (B2) (A1)
                 (B1) (B1) (A1) (A2) (B2) (A1) (B2) (A1)
 The electronic state of the initial guess is 1-A1.
 Keep R1 ints in memory in symmetry-blocked form, NReq=13721945.
 Requested convergence on RMS density matrix=1.00D-08 within 128 cycles.
 Requested convergence on MAX density matrix=1.00D-06.
 Requested convergence on             energy=1.00D-06.
 No special actions if energy rises.
 Integral accuracy reduced to 1.0D-05 until final iterations.
 Initial convergence to 1.0D-05 achieved.  Increase integral accuracy.
 SCF Done:  E(RB3LYP) =  -548.629835086     A.U. after   12 cycles
            NFock= 12  Conv=0.94D-08     -V/T= 2.0032

 **********************************************************************

            Population analysis using the SCF Density.

 **********************************************************************

 Orbital symmetries:
       Occupied  (A1) (B2) (A1) (A1) (B1) (B2) (A1) (A1) (B2) (A1)
                 (B2) (A1) (B1) (A2) (B2) (A1)
       Virtual   (B1) (A1) (B2) (A1) (B1) (B2) (A1) (A1) (B2) (A2)
                 (B1) (A1) (B2) (A1) (A2) (B1) (A1) (B2) (B2) (A1)
                 (B2) (B1) (A2) (A1) (B2) (B1) (A2) (A1) (B1) (A1)
                 (B2) (A1) (B2) (B1) (A1) (A2) (B2) (B1) (B2) (A1)
                 (A1) (A2) (B1) (B2) (A1) (B2) (A1) (B1) (A1) (A2)
                 (B2) (A1) (A2) (B2) (A1) (B1) (A2) (B2) (A1) (B1)
                 (B2) (A1) (B1) (A2) (B2) (A1) (B2) (A2) (B2) (A1)
                 (B1) (B1) (A2) (A1) (B2) (A1) (B2) (A1)
 The electronic state is 1-A1.
 Alpha  occ. eigenvalues --  -89.06315 -19.21807 -19.21806  -8.13043  -6.09266
 Alpha  occ. eigenvalues --   -6.09188  -6.08876  -1.04335  -0.98799  -0.70919
 Alpha  occ. eigenvalues --   -0.48616  -0.45715  -0.44735  -0.35526  -0.35327
 Alpha  occ. eigenvalues --   -0.34627
 Alpha virt. eigenvalues --   -0.20770  -0.08450  -0.03508   0.18932   0.19931
 Alpha virt. eigenvalues --    0.22147   0.29659   0.31329   0.32023   0.32580
 Alpha virt. eigenvalues --    0.34112   0.34671   0.43509   0.46385   0.47173
 Alpha virt. eigenvalues --    0.48024   0.52534   0.59970   0.69624   0.82438
 Alpha virt. eigenvalues --    1.34445   1.34764   1.37925   1.41553   1.41964
 Alpha virt. eigenvalues --    1.44626   1.51016   1.56295   1.66989   1.74660
 Alpha virt. eigenvalues --    1.76288   1.81888   1.85683   1.86581   1.89799
 Alpha virt. eigenvalues --    2.00375   2.03299   2.06005   2.13624   2.13841
 Alpha virt. eigenvalues --    2.26715   2.33523   2.40112   2.47763   2.62779
 Alpha virt. eigenvalues --    2.68116   3.22475   3.25496   3.30563   3.32502
 Alpha virt. eigenvalues --    3.41188   3.82784   3.94731   3.94890   3.95373
 Alpha virt. eigenvalues --    3.95381   3.95828   3.96975   4.01733   4.02762
 Alpha virt. eigenvalues --    4.05223   4.18220   4.25062   4.35158   4.38172
 Alpha virt. eigenvalues --    4.66074   5.05220   5.95080   5.95752   5.96435
 Alpha virt. eigenvalues --    5.96843   6.17359   6.17913   6.18898   6.21017
 Alpha virt. eigenvalues --    6.44963   6.70874  24.87784
          Condensed to atoms (all electrons):
               1          2          3
     1  S   14.762648   0.232823   0.232823
     2  O    0.232823   8.188845  -0.035816
     3  O    0.232823  -0.035816   8.188845
 Mulliken charges:
               1
     1  S    0.771706
     2  O   -0.385853
     3  O   -0.385853
 Sum of Mulliken charges =   0.00000
 Mulliken charges with hydrogens summed into heavy atoms:
               1
     1  S    0.771706
     2  O   -0.385853
     3  O   -0.385853
 Electronic spatial extent (au):  <R**2>=            199.4602
 Charge=              0.0000 electrons
 Dipole moment (field-independent basis, Debye):
    X=              0.0000    Y=              0.0000    Z=              2.3561  Tot=              2.3561
 Quadrupole moment (field-independent basis, Debye-Ang):
   XX=            -21.8265   YY=            -29.0041   ZZ=            -23.1126
   XY=             -0.0000   XZ=             -0.0000   YZ=             -0.0000
 Traceless Quadrupole moment (field-independent basis, Debye-Ang):
   XX=              2.8213   YY=             -4.3564   ZZ=              1.5351
   XY=             -0.0000   XZ=             -0.0000   YZ=             -0.0000
 Octapole moment (field-independent basis, Debye-Ang**2):
  XXX=              0.0000  YYY=             -0.0000  ZZZ=              1.4338  XYY=              0.0000
  XXY=             -0.0000  XXZ=              0.3509  XZZ=              0.0000  YZZ=             -0.0000
  YYZ=              1.9969  XYZ=              0.0000
 Hexadecapole moment (field-independent basis, Debye-Ang**3):
 XXXX=            -21.6153 YYYY=           -182.6562 ZZZZ=            -48.6737 XXXY=             -0.0000
 XXXZ=             -0.0000 YYYX=             -0.0000 YYYZ=              0.0000 ZZZX=             -0.0000
 ZZZY=              0.0000 XXYY=            -32.2650 XXZZ=            -11.4172 YYZZ=            -37.4315
 XXYZ=              0.0000 YYXZ=             -0.0000 ZZXY=             -0.0000
 N-N= 9.118981454508D+01 E-N=-1.483815647967D+03  KE= 5.468956180690D+02
 Symmetry A1   KE= 3.937252508986D+02
 Symmetry A2   KE= 4.631507626931D+00
 Symmetry B1   KE= 3.922769511553D+01
 Symmetry B2   KE= 1.093111644280D+02
 Calling FoFJK, ICntrl=      2127 FMM=F ISym2X=1 I1Cent= 0 IOpClX= 0 NMat=1 NMatS=1 NMatT=0.
 ***** Axes restored to original set *****
 -------------------------------------------------------------------
 Center     Atomic                   Forces (Hartrees/Bohr)
 Number     Number              X              Y              Z
 -------------------------------------------------------------------
      1       16           0.115712318    0.000000000    0.066806538
      2        8           0.005984548   -0.000000000   -0.143978617
      3        8          -0.121696866   -0.000000000    0.077172079
 -------------------------------------------------------------------
 Cartesian Forces:  Max     0.143978617 RMS     0.081229283

 GradGradGradGradGradGradGradGradGradGradGradGradGradGradGradGradGradGrad
 Berny optimization.
 FormGI is forming the generalized inverse of G from B-inverse, IUseBI=4.
 Internal  Forces:  Max     0.143978617 RMS     0.118080914
 Search for a local minimum.
 Step number   1 out of a maximum of   20
 All quantities printed in internal units (Hartrees-Bohrs-Radians)
 Mixed Optimization -- RFO/linear search
 Second derivative matrix not updated -- first step.
 The second derivative matrix:
                          R1        R2        A1
           R1           0.35890
           R2           0.00000   0.35890
           A1           0.00000   0.00000   0.25000
 ITU=  0
     Eigenvalues ---    0.25000   0.35890   0.35890
 RFO step:  Lambda=-9.28526655D-02 EMin= 2.50000000D-01
 Linear search not attempted -- first point.
 Maximum step size (   0.300) exceeded in Quadratic search.
    -- Step size scaled by   0.661
 Iteration  1 RMS(Cart)=  0.16727762 RMS(Int)=  0.00917036
 Iteration  2 RMS(Cart)=  0.00748227 RMS(Int)=  0.00000556
 Iteration  3 RMS(Cart)=  0.00000884 RMS(Int)=  0.00000000
 Iteration  4 RMS(Cart)=  0.00000000 RMS(Int)=  0.00000000
 ClnCor:  largest displacement from symmetrization is 5.32D-14 for atom     3.
 Variable       Old X    -DE/DX   Delta X   Delta X   Delta X     New X
                                 (Linear)    (Quad)   (Total)
    R1        3.21253  -0.14398   0.00000  -0.21051  -0.21051   3.00203
    R2        3.21253  -0.14398   0.00000  -0.21051  -0.21051   3.00203
    A1        2.09440  -0.01923   0.00000  -0.03704  -0.03704   2.05736
         Item               Value     Threshold  Converged?
 Maximum Force            0.143979     0.000450     NO 
 RMS     Force            0.118081     0.000300     NO 
 Maximum Displacement     0.191901     0.001800     NO 
 RMS     Displacement     0.174026     0.001200     NO 
 Predicted change in Energy=-4.525377D-02
 GradGradGradGradGradGradGradGradGradGradGradGradGradGradGradGradGradGrad

                          Input orientation:                          
 ---------------------------------------------------------------------
 Center     Atomic      Atomic             Coordinates (Angstroms)
 Number     Number       Type             X           Y           Z
 ---------------------------------------------------------------------
      1         16           0        0.017527   -0.000000    0.010119
      2          8           0        0.046945   -0.000000    1.598450
      3          8           0        1.407771    0.000000   -0.758570
 ---------------------------------------------------------------------
                    Distance matrix (angstroms):
                    1          2          3
     1  S    0.000000
     2  O    1.588603   0.000000
     3  O    1.588603   2.721652   0.000000
 Stoichiometry    O2S
 Framework group  C2V[C2(S),SGV(O2)]
 Deg. of freedom     2
 Full point group                 C2V     NOp   4
 Largest Abelian subgroup         C2V     NOp   4
 Largest concise Abelian subgroup C2      NOp   2
                         Standard orientation:                         
 ---------------------------------------------------------------------
 Center     Atomic      Atomic             Coordinates (Angstroms)
 Number     Number       Type             X           Y           Z
 ---------------------------------------------------------------------
      1         16           0       -0.000000    0.000000    0.409821
      2          8           0       -0.000000    1.360826   -0.409821
      3          8           0       -0.000000   -1.360826   -0.409821
 ---------------------------------------------------------------------
 Rotational constants (GHZ):          47.0443521           8.5310013           7.2214643
 Basis read from rwf:  (5D, 7F)
 There are    42 symmetry adapted cartesian basis functions of A1  symmetry.
 There are    14 symmetry adapted cartesian basis functions of A2  symmetry.
 There are    20 symmetry adapted cartesian basis functions of B1  symmetry.
 There are    33 symmetry adapted cartesian basis functions of B2  symmetry.
 There are    35 symmetry adapted basis functions of A1  symmetry.
 There are    13 symmetry adapted basis functions of A2  symmetry.
 There are    18 symmetry adapted basis functions of B1  symmetry.
 There are    28 symmetry adapted basis functions of B2  symmetry.
    94 basis functions,   172 primitive gaussians,   109 cartesian basis functions
    16 alpha electrons       16 beta electrons
       nuclear repulsion energy        97.7194337601 Hartrees.
 NAtoms=    3 NActive=    3 NUniq=    2 SFac= 2.25D+00 NAtFMM=   60 NAOKFM=F Big=F
 Integral buffers will be    131072 words long.
 Raffenetti 2 integral format.
 Two-electron integral symmetry is turned on.
 One-electron integrals computed using PRISM.
 NBasis=    94 RedAO= T EigKep=  6.42D-03  NBF=    35    13    18    28
 NBsUse=    94 1.00D-06 EigRej= -1.00D+00 NBFU=    35    13    18    28
 Initial guess from the checkpoint file:  "/wrk/irikura/Gau-20174.chk"
 B after Tr=     0.000000   -0.000000   -0.000000
         Rot=    1.000000    0.000000    0.000000   -0.000000 Ang=   0.00 deg.
 Initial guess orbital symmetries:
       Occupied  (A1) (B2) (A1) (A1) (B1) (B2) (A1) (A1) (B2) (A1)
                 (B2) (A1) (B1) (A2) (B2) (A1)
       Virtual   (B1) (A1) (B2) (A1) (B1) (B2) (A1) (A1) (B2) (A2)
                 (B1) (A1) (B2) (A1) (A2) (B1) (A1) (B2) (B2) (A1)
                 (B2) (B1) (A2) (A1) (B2) (B1) (A2) (A1) (B1) (A1)
                 (B2) (A1) (B2) (B1) (A1) (A2) (B2) (B1) (B2) (A1)
                 (A1) (A2) (B1) (B2) (A1) (B2) (A1) (B1) (A1) (A2)
                 (B2) (A1) (A2) (B2) (A1) (B1) (A2) (B2) (A1) (B1)
                 (B2) (A1) (B1) (A2) (B2) (A1) (B2) (A2) (B2) (A1)
                 (B1) (B1) (A2) (A1) (B2) (A1) (B2) (A1)
 ExpMin= 9.75D-02 ExpMax= 1.35D+05 ExpMxC= 1.30D+03 IAcc=3 IRadAn=         5 AccDes= 0.00D+00
 Harris functional with IExCor=  402 and IRadAn=       5 diagonalized for initial guess.
 HarFok:  IExCor=  402 AccDes= 0.00D+00 IRadAn=         5 IDoV= 1 UseB2=F ITyADJ=14
 ICtDFT=  3500011 ScaDFX=  1.000000  1.000000  1.000000  1.000000
 FoFCou: FMM=F IPFlag=           0 FMFlag=      100000 FMFlg1=           0
         NFxFlg=           0 DoJE=T BraDBF=F KetDBF=T FulRan=T
         wScrn=  0.000000 ICntrl=       500 IOpCl=  0 I1Cent=   200000004 NGrid=           0
         NMat0=    1 NMatS0=      1 NMatT0=    0 NMatD0=    1 NMtDS0=    0 NMtDT0=    0
 Petite list used in FoFCou.
 Keep R1 ints in memory in symmetry-blocked form, NReq=13721945.
 Requested convergence on RMS density matrix=1.00D-08 within 128 cycles.
 Requested convergence on MAX density matrix=1.00D-06.
 Requested convergence on             energy=1.00D-06.
 No special actions if energy rises.
 Integral accuracy reduced to 1.0D-05 until final iterations.
 Initial convergence to 1.0D-05 achieved.  Increase integral accuracy.
 SCF Done:  E(RB3LYP) =  -548.685864741     A.U. after   11 cycles
            NFock= 11  Conv=0.30D-08     -V/T= 2.0027
 Calling FoFJK, ICntrl=      2127 FMM=F ISym2X=1 I1Cent= 0 IOpClX= 0 NMat=1 NMatS=1 NMatT=0.
 ***** Axes restored to original set *****
 -------------------------------------------------------------------
 Center     Atomic                   Forces (Hartrees/Bohr)
 Number     Number              X              Y              Z
 -------------------------------------------------------------------
      1       16           0.098614918    0.000000000    0.056935350
      2        8           0.000322683   -0.000000000   -0.114429602
      3        8          -0.098937601   -0.000000000    0.057494252
 -------------------------------------------------------------------
 Cartesian Forces:  Max     0.114429602 RMS     0.065958751

 GradGradGradGradGradGradGradGradGradGradGradGradGradGradGradGradGradGrad
 Berny optimization.
 Using GEDIIS/GDIIS optimizer.
 FormGI is forming the generalized inverse of G from B-inverse, IUseBI=4.
 Internal  Forces:  Max     0.114404005 RMS     0.093506291
 Search for a local minimum.
 Step number   2 out of a maximum of   20
 All quantities printed in internal units (Hartrees-Bohrs-Radians)
 Mixed Optimization -- RFO/linear search
 Update second derivatives using D2CorX and points    1    2
 DE= -5.60D-02 DEPred=-4.53D-02 R= 1.24D+00
 TightC=F SS=  1.41D+00  RLast= 3.00D-01 DXNew= 5.0454D-01 9.0000D-01
 Trust test= 1.24D+00 RLast= 3.00D-01 DXMaxT set to 5.05D-01
 The second derivative matrix:
                          R1        R2        A1
           R1           0.24921
           R2          -0.10969   0.24921
           A1           0.00553   0.00553   0.25831
 ITU=  1  0
 Use linear search instead of GDIIS.
     Eigenvalues ---    0.13901   0.25882   0.35890
 RFO step:  Lambda=-1.89625692D-03 EMin= 1.39005071D-01
 Quartic linear search produced a step of  1.38633.
 Iteration  1 RMS(Cart)=  0.13741616 RMS(Int)=  0.08908186
 Iteration  2 RMS(Cart)=  0.08215326 RMS(Int)=  0.00005488
 Iteration  3 RMS(Cart)=  0.00007331 RMS(Int)=  0.00000000
 Iteration  4 RMS(Cart)=  0.00000000 RMS(Int)=  0.00000000
 ClnCor:  largest displacement from symmetrization is 1.27D-13 for atom     3.
 Variable       Old X    -DE/DX   Delta X   Delta X   Delta X     New X
                                 (Linear)    (Quad)   (Total)
    R1        3.00203  -0.11440  -0.29183  -0.01682  -0.30865   2.69337
    R2        3.00203  -0.11440  -0.29183  -0.01682  -0.30865   2.69337
    A1        2.05736  -0.00733  -0.05135   0.08426   0.03292   2.09027
         Item               Value     Threshold  Converged?
 Maximum Force            0.114404     0.000450     NO 
 RMS     Force            0.093506     0.000300     NO 
 Maximum Displacement     0.242342     0.001800     NO 
 RMS     Displacement     0.218292     0.001200     NO 
 Predicted change in Energy=-5.706222D-02
 GradGradGradGradGradGradGradGradGradGradGradGradGradGradGradGradGradGrad

                          Input orientation:                          
 ---------------------------------------------------------------------
 Center     Atomic      Atomic             Coordinates (Angstroms)
 Number     Number       Type             X           Y           Z
 ---------------------------------------------------------------------
      1         16           0        0.077840   -0.000000    0.044941
      2          8           0        0.080777   -0.000000    1.470209
      3          8           0        1.313626    0.000000   -0.665150
 ---------------------------------------------------------------------
                    Distance matrix (angstroms):
                    1          2          3
     1  S    0.000000
     2  O    1.425271   0.000000
     3  O    1.425271   2.465699   0.000000
 Stoichiometry    O2S
 Framework group  C2V[C2(S),SGV(O2)]
 Deg. of freedom     2
 Full point group                 C2V     NOp   4
 Largest Abelian subgroup         C2V     NOp   4
 Largest concise Abelian subgroup C2      NOp   2
                         Standard orientation:                         
 ---------------------------------------------------------------------
 Center     Atomic      Atomic             Coordinates (Angstroms)
 Number     Number       Type             X           Y           Z
 ---------------------------------------------------------------------
      1         16           0        0.000000    0.000000    0.357588
      2          8           0       -0.000000    1.232850   -0.357588
      3          8           0       -0.000000   -1.232850   -0.357588
 ---------------------------------------------------------------------
 Rotational constants (GHZ):          61.7915626          10.3940549           8.8974080
 Basis read from rwf:  (5D, 7F)
 There are    42 symmetry adapted cartesian basis functions of A1  symmetry.
 There are    14 symmetry adapted cartesian basis functions of A2  symmetry.
 There are    20 symmetry adapted cartesian basis functions of B1  symmetry.
 There are    33 symmetry adapted cartesian basis functions of B2  symmetry.
 There are    35 symmetry adapted basis functions of A1  symmetry.
 There are    13 symmetry adapted basis functions of A2  symmetry.
 There are    18 symmetry adapted basis functions of B1  symmetry.
 There are    28 symmetry adapted basis functions of B2  symmetry.
    94 basis functions,   172 primitive gaussians,   109 cartesian basis functions
    16 alpha electrons       16 beta electrons
       nuclear repulsion energy       108.7835669533 Hartrees.
 NAtoms=    3 NActive=    3 NUniq=    2 SFac= 2.25D+00 NAtFMM=   60 NAOKFM=F Big=F
 Integral buffers will be    131072 words long.
 Raffenetti 2 integral format.
 Two-electron integral symmetry is turned on.
 One-electron integrals computed using PRISM.
 NBasis=    94 RedAO= T EigKep=  3.87D-03  NBF=    35    13    18    28
 NBsUse=    94 1.00D-06 EigRej= -1.00D+00 NBFU=    35    13    18    28
 Initial guess from the checkpoint file:  "/wrk/irikura/Gau-20174.chk"
 B after Tr=     0.000000    0.000000    0.000000
         Rot=    1.000000    0.000000   -0.000000   -0.000000 Ang=   0.00 deg.
 Initial guess orbital symmetries:
       Occupied  (A1) (B2) (A1) (A1) (B1) (B2) (A1) (A1) (B2) (A1)
                 (B2) (A1) (B1) (A2) (B2) (A1)
       Virtual   (B1) (A1) (B2) (A1) (B1) (B2) (A1) (A1) (B2) (A2)
                 (B1) (A1) (B2) (A1) (A2) (B1) (A1) (B2) (B2) (A1)
                 (B1) (A2) (B2) (A1) (B2) (B1) (A2) (A1) (B1) (B2)
                 (A1) (A1) (B2) (B1) (A1) (A2) (B1) (B2) (B2) (A1)
                 (A1) (A2) (B1) (B2) (A1) (B2) (A1) (B1) (A1) (A2)
                 (B2) (A1) (A2) (B2) (B1) (A1) (A2) (B2) (A1) (B1)
                 (B2) (A1) (B1) (A2) (B2) (A1) (B2) (A2) (B2) (A1)
                 (B1) (B1) (A2) (B2) (A1) (A1) (B2) (A1)
 ExpMin= 9.75D-02 ExpMax= 1.35D+05 ExpMxC= 1.30D+03 IAcc=3 IRadAn=         5 AccDes= 0.00D+00
 Harris functional with IExCor=  402 and IRadAn=       5 diagonalized for initial guess.
 HarFok:  IExCor=  402 AccDes= 0.00D+00 IRadAn=         5 IDoV= 1 UseB2=F ITyADJ=14
 ICtDFT=  3500011 ScaDFX=  1.000000  1.000000  1.000000  1.000000
 FoFCou: FMM=F IPFlag=           0 FMFlag=      100000 FMFlg1=           0
         NFxFlg=           0 DoJE=T BraDBF=F KetDBF=T FulRan=T
         wScrn=  0.000000 ICntrl=       500 IOpCl=  0 I1Cent=   200000004 NGrid=           0
         NMat0=    1 NMatS0=      1 NMatT0=    0 NMatD0=    1 NMtDS0=    0 NMtDT0=    0
 Petite list used in FoFCou.
 Keep R1 ints in memory in symmetry-blocked form, NReq=13721945.
 Requested convergence on RMS density matrix=1.00D-08 within 128 cycles.
 Requested convergence on MAX density matrix=1.00D-06.
 Requested convergence on             energy=1.00D-06.
 No special actions if energy rises.
 Integral accuracy reduced to 1.0D-05 until final iterations.
 Initial convergence to 1.0D-05 achieved.  Increase integral accuracy.
 SCF Done:  E(RB3LYP) =  -548.722645501     A.U. after   11 cycles
            NFock= 11  Conv=0.38D-08     -V/T= 2.0012
 Calling FoFJK, ICntrl=      2127 FMM=F ISym2X=1 I1Cent= 0 IOpClX= 0 NMat=1 NMatS=1 NMatT=0.
 ***** Axes restored to original set *****
 -------------------------------------------------------------------
 Center     Atomic                   Forces (Hartrees/Bohr)
 Number     Number              X              Y              Z
 -------------------------------------------------------------------
      1       16          -0.021526561    0.000000000   -0.012428366
      2        8           0.002787607   -0.000000000    0.020028454
      3        8           0.018738954   -0.000000000   -0.007600088
 -------------------------------------------------------------------
 Cartesian Forces:  Max     0.021526561 RMS     0.012630108

 GradGradGradGradGradGradGradGradGradGradGradGradGradGradGradGradGradGrad
 Berny optimization.
 Using GEDIIS/GDIIS optimizer.
 FormGI is forming the generalized inverse of G from B-inverse, IUseBI=4.
 Internal  Forces:  Max     0.020034154 RMS     0.016906103
 Search for a local minimum.
 Step number   3 out of a maximum of   20
 All quantities printed in internal units (Hartrees-Bohrs-Radians)
 Mixed Optimization -- RFO/linear search
 Update second derivatives using D2CorX and points    2    3
 DE= -3.68D-02 DEPred=-5.71D-02 R= 6.45D-01
 TightC=F SS=  1.41D+00  RLast= 4.38D-01 DXNew= 8.4853D-01 1.3132D+00
 Trust test= 6.45D-01 RLast= 4.38D-01 DXMaxT set to 8.49D-01
 The second derivative matrix:
                          R1        R2        A1
           R1           0.39796
           R2           0.03906   0.39796
           A1           0.01361   0.01361   0.25734
 ITU=  1  1  0
 Use linear search instead of GDIIS.
     Eigenvalues ---    0.25530   0.35890   0.43905
 RFO step:  Lambda=-1.70012042D-04 EMin= 2.55297784D-01
 Quartic linear search produced a step of -0.09768.
 Iteration  1 RMS(Cart)=  0.02354759 RMS(Int)=  0.00027972
 Iteration  2 RMS(Cart)=  0.00040398 RMS(Int)=  0.00000005
 Iteration  3 RMS(Cart)=  0.00000004 RMS(Int)=  0.00000000
 ClnCor:  largest displacement from symmetrization is 3.53D-13 for atom     3.
 Variable       Old X    -DE/DX   Delta X   Delta X   Delta X     New X
                                 (Linear)    (Quad)   (Total)
    R1        2.69337   0.02003   0.03015  -0.00001   0.03014   2.72351
    R2        2.69337   0.02003   0.03015  -0.00001   0.03014   2.72351
    A1        2.09027  -0.00740  -0.00322  -0.02569  -0.02891   2.06137
         Item               Value     Threshold  Converged?
 Maximum Force            0.020034     0.000450     NO 
 RMS     Force            0.016906     0.000300     NO 
 Maximum Displacement     0.028310     0.001800     NO 
 RMS     Displacement     0.023641     0.001200     NO 
 Predicted change in Energy=-9.407268D-04
 GradGradGradGradGradGradGradGradGradGradGradGradGradGradGradGradGradGrad

                          Input orientation:                          
 ---------------------------------------------------------------------
 Center     Atomic      Atomic             Coordinates (Angstroms)
 Number     Number       Type             X           Y           Z
 ---------------------------------------------------------------------
      1         16           0        0.062860   -0.000000    0.036292
      2          8           0        0.086660   -0.000000    1.477316
      3          8           0        1.322724    0.000000   -0.663608
 ---------------------------------------------------------------------
                    Distance matrix (angstroms):
                    1          2          3
     1  S    0.000000
     2  O    1.441221   0.000000
     3  O    1.441221   2.472127   0.000000
 Stoichiometry    O2S
 Framework group  C2V[C2(S),SGV(O2)]
 Deg. of freedom     2
 Full point group                 C2V     NOp   4
 Largest Abelian subgroup         C2V     NOp   4
 Largest concise Abelian subgroup C2      NOp   2
                         Standard orientation:                         
 ---------------------------------------------------------------------
 Center     Atomic      Atomic             Coordinates (Angstroms)
 Number     Number       Type             X           Y           Z
 ---------------------------------------------------------------------
      1         16           0        0.000000   -0.000000    0.370562
      2          8           0       -0.000000    1.236064   -0.370562
      3          8           0       -0.000000   -1.236064   -0.370562
 ---------------------------------------------------------------------
 Rotational constants (GHZ):          57.5405439          10.3400741           8.7649981
 Basis read from rwf:  (5D, 7F)
 There are    42 symmetry adapted cartesian basis functions of A1  symmetry.
 There are    14 symmetry adapted cartesian basis functions of A2  symmetry.
 There are    20 symmetry adapted cartesian basis functions of B1  symmetry.
 There are    33 symmetry adapted cartesian basis functions of B2  symmetry.
 There are    35 symmetry adapted basis functions of A1  symmetry.
 There are    13 symmetry adapted basis functions of A2  symmetry.
 There are    18 symmetry adapted basis functions of B1  symmetry.
 There are    28 symmetry adapted basis functions of B2  symmetry.
    94 basis functions,   172 primitive gaussians,   109 cartesian basis functions
    16 alpha electrons       16 beta electrons
       nuclear repulsion energy       107.6959195897 Hartrees.
 NAtoms=    3 NActive=    3 NUniq=    2 SFac= 2.25D+00 NAtFMM=   60 NAOKFM=F Big=F
 Integral buffers will be    131072 words long.
 Raffenetti 2 integral format.
 Two-electron integral symmetry is turned on.
 One-electron integrals computed using PRISM.
 NBasis=    94 RedAO= T EigKep=  4.09D-03  NBF=    35    13    18    28
 NBsUse=    94 1.00D-06 EigRej= -1.00D+00 NBFU=    35    13    18    28
 Initial guess from the checkpoint file:  "/wrk/irikura/Gau-20174.chk"
 B after Tr=    -0.000000   -0.000000   -0.000000
         Rot=    1.000000   -0.000000    0.000000   -0.000000 Ang=   0.00 deg.
 Initial guess orbital symmetries:
       Occupied  (A1) (B2) (A1) (A1) (B1) (B2) (A1) (A1) (B2) (A1)
                 (B1) (A1) (B2) (A2) (B2) (A1)
       Virtual   (B1) (A1) (B2) (B1) (A1) (B2) (A1) (A1) (B2) (A2)
                 (B1) (A1) (B2) (A1) (B1) (A2) (A1) (B2) (A1) (B2)
                 (B1) (A2) (A1) (B2) (B2) (B1) (B1) (A1) (B2) (A2)
                 (A1) (A1) (B2) (B1) (A1) (A2) (B1) (B2) (B2) (A1)
                 (A1) (A2) (B1) (A1) (B2) (B2) (A1) (B1) (B2) (A1)
                 (A2) (A1) (B2) (A2) (B1) (A1) (A2) (B2) (A1) (B1)
                 (A1) (B1) (B2) (A2) (A1) (B2) (B2) (A2) (A1) (B1)
                 (B2) (B1) (A2) (B2) (A1) (A1) (B2) (A1)
 ExpMin= 9.75D-02 ExpMax= 1.35D+05 ExpMxC= 1.30D+03 IAcc=3 IRadAn=         5 AccDes= 0.00D+00
 Harris functional with IExCor=  402 and IRadAn=       5 diagonalized for initial guess.
 HarFok:  IExCor=  402 AccDes= 0.00D+00 IRadAn=         5 IDoV= 1 UseB2=F ITyADJ=14
 ICtDFT=  3500011 ScaDFX=  1.000000  1.000000  1.000000  1.000000
 FoFCou: FMM=F IPFlag=           0 FMFlag=      100000 FMFlg1=           0
         NFxFlg=           0 DoJE=T BraDBF=F KetDBF=T FulRan=T
         wScrn=  0.000000 ICntrl=       500 IOpCl=  0 I1Cent=   200000004 NGrid=           0
         NMat0=    1 NMatS0=      1 NMatT0=    0 NMatD0=    1 NMtDS0=    0 NMtDT0=    0
 Petite list used in FoFCou.
 Keep R1 ints in memory in symmetry-blocked form, NReq=13721945.
 Requested convergence on RMS density matrix=1.00D-08 within 128 cycles.
 Requested convergence on MAX density matrix=1.00D-06.
 Requested convergence on             energy=1.00D-06.
 No special actions if energy rises.
 Integral accuracy reduced to 1.0D-05 until final iterations.
 Initial convergence to 1.0D-05 achieved.  Increase integral accuracy.
 SCF Done:  E(RB3LYP) =  -548.723309021     A.U. after   10 cycles
            NFock= 10  Conv=0.30D-08     -V/T= 2.0014
 Calling FoFJK, ICntrl=      2127 FMM=F ISym2X=1 I1Cent= 0 IOpClX= 0 NMat=1 NMatS=1 NMatT=0.
 ***** Axes restored to original set *****
 -------------------------------------------------------------------
 Center     Atomic                   Forces (Hartrees/Bohr)
 Number     Number              X              Y              Z
 -------------------------------------------------------------------
      1       16           0.001331895    0.000000000    0.000768970
      2        8          -0.000857870   -0.000000000   -0.000052065
      3        8          -0.000474025   -0.000000000   -0.000716905
 -------------------------------------------------------------------
 Cartesian Forces:  Max     0.001331895 RMS     0.000653415

 GradGradGradGradGradGradGradGradGradGradGradGradGradGradGradGradGradGrad
 Berny optimization.
 Using GEDIIS/GDIIS optimizer.
 FormGI is forming the generalized inverse of G from B-inverse, IUseBI=4.
 Internal  Forces:  Max     0.002333760 RMS     0.001348481
 Search for a local minimum.
 Step number   4 out of a maximum of   20
 All quantities printed in internal units (Hartrees-Bohrs-Radians)
 Mixed Optimization -- RFO/linear search
 Update second derivatives using D2CorX and points    2    3    4
 DE= -6.64D-04 DEPred=-9.41D-04 R= 7.05D-01
 TightC=F SS=  1.41D+00  RLast= 5.15D-02 DXNew= 1.4270D+00 1.5452D-01
 Trust test= 7.05D-01 RLast= 5.15D-02 DXMaxT set to 8.49D-01
 The second derivative matrix:
                          R1        R2        A1
           R1           0.49921
           R2           0.14031   0.49921
           A1          -0.02849  -0.02849   0.27718
 ITU=  1  1  1  0
 Use linear search instead of GDIIS.
     Eigenvalues ---    0.27275   0.35890   0.64395
 RFO step:  Lambda=-1.65759656D-05 EMin= 2.72750027D-01
 Quartic linear search produced a step of -0.05005.
 Iteration  1 RMS(Cart)=  0.00689626 RMS(Int)=  0.00002052
 Iteration  2 RMS(Cart)=  0.00001815 RMS(Int)=  0.00000000
 Iteration  3 RMS(Cart)=  0.00000000 RMS(Int)=  0.00000000
 ClnCor:  largest displacement from symmetrization is 2.27D-13 for atom     3.
 Variable       Old X    -DE/DX   Delta X   Delta X   Delta X     New X
                                 (Linear)    (Quad)   (Total)
    R1        2.72351  -0.00007  -0.00151   0.00173   0.00022   2.72373
    R2        2.72351  -0.00007  -0.00151   0.00173   0.00022   2.72373
    A1        2.06137   0.00233   0.00145   0.00715   0.00859   2.06996
         Item               Value     Threshold  Converged?
 Maximum Force            0.002334     0.000450     NO 
 RMS     Force            0.001348     0.000300     NO 
 Maximum Displacement     0.007013     0.001800     NO 
 RMS     Displacement     0.006889     0.001200     NO 
 Predicted change in Energy=-9.868389D-06
 GradGradGradGradGradGradGradGradGradGradGradGradGradGradGradGradGradGrad

                          Input orientation:                          
 ---------------------------------------------------------------------
 Center     Atomic      Atomic             Coordinates (Angstroms)
 Number     Number       Type             X           Y           Z
 ---------------------------------------------------------------------
      1         16           0        0.065895   -0.000000    0.038045
      2          8           0        0.083505   -0.000000    1.479275
      3          8           0        1.322843    0.000000   -0.667320
 ---------------------------------------------------------------------
                    Distance matrix (angstroms):
                    1          2          3
     1  S    0.000000
     2  O    1.441338   0.000000
     3  O    1.441338   2.478674   0.000000
 Stoichiometry    O2S
 Framework group  C2V[C2(S),SGV(O2)]
 Deg. of freedom     2
 Full point group                 C2V     NOp   4
 Largest Abelian subgroup         C2V     NOp   4
 Largest concise Abelian subgroup C2      NOp   2
                         Standard orientation:                         
 ---------------------------------------------------------------------
 Center     Atomic      Atomic             Coordinates (Angstroms)
 Number     Number       Type             X           Y           Z
 ---------------------------------------------------------------------
      1         16           0        0.000000   -0.000000    0.367933
      2          8           0       -0.000000    1.239337   -0.367933
      3          8           0       -0.000000   -1.239337   -0.367933
 ---------------------------------------------------------------------
 Rotational constants (GHZ):          58.3657795          10.2855218           8.7445174
 Basis read from rwf:  (5D, 7F)
 There are    42 symmetry adapted cartesian basis functions of A1  symmetry.
 There are    14 symmetry adapted cartesian basis functions of A2  symmetry.
 There are    20 symmetry adapted cartesian basis functions of B1  symmetry.
 There are    33 symmetry adapted cartesian basis functions of B2  symmetry.
 There are    35 symmetry adapted basis functions of A1  symmetry.
 There are    13 symmetry adapted basis functions of A2  symmetry.
 There are    18 symmetry adapted basis functions of B1  symmetry.
 There are    28 symmetry adapted basis functions of B2  symmetry.
    94 basis functions,   172 primitive gaussians,   109 cartesian basis functions
    16 alpha electrons       16 beta electrons
       nuclear repulsion energy       107.6521010065 Hartrees.
 NAtoms=    3 NActive=    3 NUniq=    2 SFac= 2.25D+00 NAtFMM=   60 NAOKFM=F Big=F
 Integral buffers will be    131072 words long.
 Raffenetti 2 integral format.
 Two-electron integral symmetry is turned on.
 One-electron integrals computed using PRISM.
 NBasis=    94 RedAO= T EigKep=  4.09D-03  NBF=    35    13    18    28
 NBsUse=    94 1.00D-06 EigRej= -1.00D+00 NBFU=    35    13    18    28
 Initial guess from the checkpoint file:  "/wrk/irikura/Gau-20174.chk"
 B after Tr=    -0.000000   -0.000000    0.000000
         Rot=    1.000000   -0.000000   -0.000000    0.000000 Ang=   0.00 deg.
 Initial guess orbital symmetries:
       Occupied  (A1) (B2) (A1) (A1) (B1) (B2) (A1) (A1) (B2) (A1)
                 (B1) (B2) (A1) (A2) (B2) (A1)
       Virtual   (B1) (A1) (B2) (B1) (A1) (B2) (A1) (A1) (B2) (A2)
                 (B1) (A1) (B2) (A1) (B1) (A2) (A1) (B2) (A1) (B2)
                 (B1) (A2) (A1) (B2) (B2) (B1) (B1) (A2) (A1) (B2)
                 (A1) (A1) (B2) (B1) (A1) (A2) (B1) (B2) (B2) (A1)
                 (A1) (A2) (B1) (A1) (B2) (B2) (A1) (B1) (B2) (A1)
                 (A2) (A1) (B2) (A2) (B1) (A1) (A2) (B2) (A1) (B1)
                 (B1) (A1) (B2) (A2) (A1) (B2) (B2) (A2) (A1) (B1)
                 (B2) (B1) (A2) (B2) (A1) (A1) (B2) (A1)
 Keep R1 ints in memory in symmetry-blocked form, NReq=13721945.
 Requested convergence on RMS density matrix=1.00D-08 within 128 cycles.
 Requested convergence on MAX density matrix=1.00D-06.
 Requested convergence on             energy=1.00D-06.
 No special actions if energy rises.
 SCF Done:  E(RB3LYP) =  -548.723314318     A.U. after    7 cycles
            NFock=  7  Conv=0.90D-08     -V/T= 2.0014
 Calling FoFJK, ICntrl=      2127 FMM=F ISym2X=1 I1Cent= 0 IOpClX= 0 NMat=1 NMatS=1 NMatT=0.
 ***** Axes restored to original set *****
 -------------------------------------------------------------------
 Center     Atomic                   Forces (Hartrees/Bohr)
 Number     Number              X              Y              Z
 -------------------------------------------------------------------
      1       16          -0.000174663    0.000000000   -0.000100842
      2        8           0.000386006   -0.000000000   -0.000466898
      3        8          -0.000211343   -0.000000000    0.000567740
 -------------------------------------------------------------------
 Cartesian Forces:  Max     0.000567740 RMS     0.000293384

 GradGradGradGradGradGradGradGradGradGradGradGradGradGradGradGradGradGrad
 Berny optimization.
 Using GEDIIS/GDIIS optimizer.
 FormGI is forming the generalized inverse of G from B-inverse, IUseBI=4.
 Internal  Forces:  Max     0.001066837 RMS     0.000722334
 Search for a local minimum.
 Step number   5 out of a maximum of   20
 All quantities printed in internal units (Hartrees-Bohrs-Radians)
 Mixed Optimization -- En-DIIS/RFO-DIIS
 Update second derivatives using D2CorX and points    2    3    4    5
 DE= -5.30D-06 DEPred=-9.87D-06 R= 5.37D-01
 TightC=F SS=  1.41D+00  RLast= 8.60D-03 DXNew= 1.4270D+00 2.5797D-02
 Trust test= 5.37D-01 RLast= 8.60D-03 DXMaxT set to 8.49D-01
 The second derivative matrix:
                          R1        R2        A1
           R1           0.51848
           R2           0.15957   0.51848
           A1           0.02862   0.02862   0.39425
 ITU=  1  1  1  1
 Use linear search instead of GDIIS.
     Eigenvalues ---    0.35890   0.38859   0.68371
 RFO step:  Lambda=-3.37349453D-07 EMin= 3.58902965D-01
 Quartic linear search produced a step of -0.32013.
 Iteration  1 RMS(Cart)=  0.00230877 RMS(Int)=  0.00000196
 Iteration  2 RMS(Cart)=  0.00000160 RMS(Int)=  0.00000000
 Iteration  3 RMS(Cart)=  0.00000000 RMS(Int)=  0.00000000
 ClnCor:  largest displacement from symmetrization is 3.70D-13 for atom     3.
 Variable       Old X    -DE/DX   Delta X   Delta X   Delta X     New X
                                 (Linear)    (Quad)   (Total)
    R1        2.72373  -0.00046  -0.00007  -0.00050  -0.00057   2.72316
    R2        2.72373  -0.00046  -0.00007  -0.00050  -0.00057   2.72316
    A1        2.06996  -0.00107  -0.00275   0.00012  -0.00263   2.06732
         Item               Value     Threshold  Converged?
 Maximum Force            0.001067     0.000450     NO 
 RMS     Force            0.000722     0.000300     NO 
 Maximum Displacement     0.002478     0.001800     NO 
 RMS     Displacement     0.002309     0.001200     NO 
 Predicted change in Energy=-1.663001D-06
 GradGradGradGradGradGradGradGradGradGradGradGradGradGradGradGradGradGrad

                          Input orientation:                          
 ---------------------------------------------------------------------
 Center     Atomic      Atomic             Coordinates (Angstroms)
 Number     Number       Type             X           Y           Z
 ---------------------------------------------------------------------
      1         16           0        0.065042   -0.000000    0.037552
      2          8           0        0.084547   -0.000000    1.478456
      3          8           0        1.322654    0.000000   -0.666008
 ---------------------------------------------------------------------
                    Distance matrix (angstroms):
                    1          2          3
     1  S    0.000000
     2  O    1.441036   0.000000
     3  O    1.441036   2.476215   0.000000
 Stoichiometry    O2S
 Framework group  C2V[C2(S),SGV(O2)]
 Deg. of freedom     2
 Full point group                 C2V     NOp   4
 Largest Abelian subgroup         C2V     NOp   4
 Largest concise Abelian subgroup C2      NOp   2
                         Standard orientation:                         
 ---------------------------------------------------------------------
 Center     Atomic      Atomic             Coordinates (Angstroms)
 Number     Number       Type             X           Y           Z
 ---------------------------------------------------------------------
      1         16           0        0.000000   -0.000000    0.368672
      2          8           0       -0.000000    1.238107   -0.368672
      3          8           0       -0.000000   -1.238107   -0.368672
 ---------------------------------------------------------------------
 Rotational constants (GHZ):          58.1321079          10.3059657           8.7540090
 Basis read from rwf:  (5D, 7F)
 There are    42 symmetry adapted cartesian basis functions of A1  symmetry.
 There are    14 symmetry adapted cartesian basis functions of A2  symmetry.
 There are    20 symmetry adapted cartesian basis functions of B1  symmetry.
 There are    33 symmetry adapted cartesian basis functions of B2  symmetry.
 There are    35 symmetry adapted basis functions of A1  symmetry.
 There are    13 symmetry adapted basis functions of A2  symmetry.
 There are    18 symmetry adapted basis functions of B1  symmetry.
 There are    28 symmetry adapted basis functions of B2  symmetry.
    94 basis functions,   172 primitive gaussians,   109 cartesian basis functions
    16 alpha electrons       16 beta electrons
       nuclear repulsion energy       107.6853651396 Hartrees.
 NAtoms=    3 NActive=    3 NUniq=    2 SFac= 2.25D+00 NAtFMM=   60 NAOKFM=F Big=F
 Integral buffers will be    131072 words long.
 Raffenetti 2 integral format.
 Two-electron integral symmetry is turned on.
 One-electron integrals computed using PRISM.
 NBasis=    94 RedAO= T EigKep=  4.09D-03  NBF=    35    13    18    28
 NBsUse=    94 1.00D-06 EigRej= -1.00D+00 NBFU=    35    13    18    28
 Initial guess from the checkpoint file:  "/wrk/irikura/Gau-20174.chk"
 B after Tr=     0.000000   -0.000000    0.000000
         Rot=    1.000000   -0.000000    0.000000   -0.000000 Ang=   0.00 deg.
 Initial guess orbital symmetries:
       Occupied  (A1) (B2) (A1) (A1) (B1) (B2) (A1) (A1) (B2) (A1)
                 (B1) (B2) (A1) (A2) (B2) (A1)
       Virtual   (B1) (A1) (B2) (B1) (A1) (B2) (A1) (A1) (B2) (A2)
                 (B1) (A1) (B2) (A1) (B1) (A2) (A1) (B2) (A1) (B2)
                 (B1) (A2) (A1) (B2) (B2) (B1) (B1) (A2) (A1) (B2)
                 (A1) (A1) (B2) (B1) (A1) (A2) (B1) (B2) (B2) (A1)
                 (A1) (A2) (B1) (A1) (B2) (B2) (A1) (B1) (B2) (A1)
                 (A2) (A1) (B2) (A2) (B1) (A1) (A2) (B2) (A1) (B1)
                 (B1) (A1) (B2) (A2) (A1) (B2) (B2) (A2) (A1) (B1)
                 (B2) (B1) (A2) (B2) (A1) (A1) (B2) (A1)
 Keep R1 ints in memory in symmetry-blocked form, NReq=13721945.
 Requested convergence on RMS density matrix=1.00D-08 within 128 cycles.
 Requested convergence on MAX density matrix=1.00D-06.
 Requested convergence on             energy=1.00D-06.
 No special actions if energy rises.
 SCF Done:  E(RB3LYP) =  -548.723315995     A.U. after    6 cycles
            NFock=  6  Conv=0.94D-08     -V/T= 2.0014
 Calling FoFJK, ICntrl=      2127 FMM=F ISym2X=1 I1Cent= 0 IOpClX= 0 NMat=1 NMatS=1 NMatT=0.
 ***** Axes restored to original set *****
 -------------------------------------------------------------------
 Center     Atomic                   Forces (Hartrees/Bohr)
 Number     Number              X              Y              Z
 -------------------------------------------------------------------
      1       16           0.000010152    0.000000000    0.000005861
      2        8          -0.000000263   -0.000000000   -0.000011267
      3        8          -0.000009889   -0.000000000    0.000005406
 -------------------------------------------------------------------
 Cartesian Forces:  Max     0.000011267 RMS     0.000006595

 GradGradGradGradGradGradGradGradGradGradGradGradGradGradGradGradGradGrad
 Berny optimization.
 Using GEDIIS/GDIIS optimizer.
 FormGI is forming the generalized inverse of G from B-inverse, IUseBI=4.
 Internal  Forces:  Max     0.000011270 RMS     0.000009203
 Search for a local minimum.
 Step number   6 out of a maximum of   20
 All quantities printed in internal units (Hartrees-Bohrs-Radians)
 Mixed Optimization -- En-DIIS/RFO-DIIS
 Swapping is turned off.
 Update second derivatives using D2CorX and points    3    4    5    6
 DE= -1.68D-06 DEPred=-1.66D-06 R= 1.01D+00
 TightC=F SS=  1.41D+00  RLast= 2.76D-03 DXNew= 1.4270D+00 8.2663D-03
 Trust test= 1.01D+00 RLast= 2.76D-03 DXMaxT set to 8.49D-01
 The second derivative matrix:
                          R1        R2        A1
           R1           0.51971
           R2           0.16081   0.51971
           A1           0.02377   0.02377   0.39475
 ITU=  1  1  1  1
     Eigenvalues ---    0.35890   0.39085   0.68442
 En-DIIS/RFO-DIIS/Sim-DIIS IScMMF=       -3 using points:     6    5
 RFO step:  Lambda= 0.00000000D+00.
 DidBck=F Rises=F RFO-DIIS coefs:    1.00154   -0.00154
 Iteration  1 RMS(Cart)=  0.00001153 RMS(Int)=  0.00000000
 Iteration  2 RMS(Cart)=  0.00000000 RMS(Int)=  0.00000000
 ClnCor:  largest displacement from symmetrization is 3.59D-13 for atom     3.
 Variable       Old X    -DE/DX   Delta X   Delta X   Delta X     New X
                                 (Linear)    (Quad)   (Total)
    R1        2.72316  -0.00001  -0.00000  -0.00002  -0.00002   2.72315
    R2        2.72316  -0.00001  -0.00000  -0.00002  -0.00002   2.72315
    A1        2.06732   0.00000  -0.00000   0.00001   0.00000   2.06733
         Item               Value     Threshold  Converged?
 Maximum Force            0.000011     0.000450     YES
 RMS     Force            0.000009     0.000300     YES
 Maximum Displacement     0.000013     0.001800     YES
 RMS     Displacement     0.000012     0.001200     YES
 Predicted change in Energy=-1.881351D-10
 Optimization completed.
    -- Stationary point found.
                           ----------------------------
                           !   Optimized Parameters   !
                           ! (Angstroms and Degrees)  !
 --------------------------                            --------------------------
 ! Name  Definition              Value          Derivative Info.                !
 --------------------------------------------------------------------------------
 ! R1    R(1,2)                  1.441          -DE/DX =    0.0                 !
 ! R2    R(1,3)                  1.441          -DE/DX =    0.0                 !
 ! A1    A(2,1,3)              118.4489         -DE/DX =    0.0                 !
 --------------------------------------------------------------------------------
 GradGradGradGradGradGradGradGradGradGradGradGradGradGradGradGradGradGrad

                          Input orientation:                          
 ---------------------------------------------------------------------
 Center     Atomic      Atomic             Coordinates (Angstroms)
 Number     Number       Type             X           Y           Z
 ---------------------------------------------------------------------
      1         16           0        0.065042   -0.000000    0.037552
      2          8           0        0.084547   -0.000000    1.478456
      3          8           0        1.322654    0.000000   -0.666008
 ---------------------------------------------------------------------
                    Distance matrix (angstroms):
                    1          2          3
     1  S    0.000000
     2  O    1.441036   0.000000
     3  O    1.441036   2.476215   0.000000
 Stoichiometry    O2S
 Framework group  C2V[C2(S),SGV(O2)]
 Deg. of freedom     2
 Full point group                 C2V     NOp   4
 Largest Abelian subgroup         C2V     NOp   4
 Largest concise Abelian subgroup C2      NOp   2
                         Standard orientation:                         
 ---------------------------------------------------------------------
 Center     Atomic      Atomic             Coordinates (Angstroms)
 Number     Number       Type             X           Y           Z
 ---------------------------------------------------------------------
      1         16           0        0.000000    0.000000    0.368672
      2          8           0       -0.000000    1.238107   -0.368672
      3          8           0       -0.000000   -1.238107   -0.368672
 ---------------------------------------------------------------------
 Rotational constants (GHZ):          58.1321079          10.3059657           8.7540090

 **********************************************************************

            Population analysis using the SCF Density.

 **********************************************************************

 Orbital symmetries:
       Occupied  (A1) (B2) (A1) (A1) (B1) (B2) (A1) (A1) (B2) (A1)
                 (B1) (B2) (A1) (A2) (B2) (A1)
       Virtual   (B1) (A1) (B2) (B1) (A1) (B2) (A1) (A1) (B2) (A2)
                 (B1) (A1) (B2) (A1) (B1) (A2) (A1) (B2) (A1) (B2)
                 (B1) (A2) (A1) (B2) (B2) (B1) (B1) (A2) (A1) (B2)
                 (A1) (A1) (B2) (B1) (A1) (A2) (B1) (B2) (B2) (A1)
                 (A1) (A2) (B1) (A1) (B2) (B2) (A1) (B1) (B2) (A1)
                 (A2) (A1) (B2) (A2) (B1) (A1) (A2) (B2) (A1) (B1)
                 (B1) (A1) (B2) (A2) (A1) (B2) (B2) (A2) (A1) (B1)
                 (B2) (B1) (A2) (B2) (A1) (A1) (B2) (A1)
 The electronic state is 1-A1.
 Alpha  occ. eigenvalues --  -89.02754 -19.18682 -19.18681  -8.10019  -6.06359
 Alpha  occ. eigenvalues --   -6.06125  -6.05716  -1.15327  -1.05978  -0.64522
 Alpha  occ. eigenvalues --   -0.50296  -0.50104  -0.50008  -0.38487  -0.37014
 Alpha  occ. eigenvalues --   -0.34383
 Alpha virt. eigenvalues --   -0.13887   0.03516   0.04683   0.19170   0.20223
 Alpha virt. eigenvalues --    0.27524   0.30695   0.32992   0.33120   0.35411
 Alpha virt. eigenvalues --    0.35846   0.37617   0.45388   0.48898   0.50270
 Alpha virt. eigenvalues --    0.50925   0.63087   0.66286   0.89922   0.93000
 Alpha virt. eigenvalues --    1.32958   1.38304   1.39386   1.42115   1.51768
 Alpha virt. eigenvalues --    1.59617   1.65271   1.65960   1.66090   1.67544
 Alpha virt. eigenvalues --    1.77122   1.89963   1.90723   1.96823   1.98945
 Alpha virt. eigenvalues --    2.10275   2.14976   2.20731   2.22036   2.36013
 Alpha virt. eigenvalues --    2.44777   2.47876   2.60707   2.74953   2.76392
 Alpha virt. eigenvalues --    2.84390   3.37856   3.39218   3.44769   3.52073
 Alpha virt. eigenvalues --    3.57302   3.66361   3.92713   3.92843   3.93841
 Alpha virt. eigenvalues --    3.94281   3.97444   4.05308   4.13411   4.22966
 Alpha virt. eigenvalues --    4.47698   4.48329   4.61111   4.64817   4.92136
 Alpha virt. eigenvalues --    4.94007   5.73837   5.96876   6.00441   6.01503
 Alpha virt. eigenvalues --    6.03325   6.35783   6.36639   6.38096   6.45473
 Alpha virt. eigenvalues --    6.65121   6.96993  30.45252
          Condensed to atoms (all electrons):
               1          2          3
     1  S   14.658084   0.260023   0.260023
     2  O    0.260023   8.207228  -0.056316
     3  O    0.260023  -0.056316   8.207228
 Mulliken charges:
               1
     1  S    0.821870
     2  O   -0.410935
     3  O   -0.410935
 Sum of Mulliken charges =  -0.00000
 Mulliken charges with hydrogens summed into heavy atoms:
               1
     1  S    0.821870
     2  O   -0.410935
     3  O   -0.410935
 Electronic spatial extent (au):  <R**2>=            155.9328
 Charge=             -0.0000 electrons
 Dipole moment (field-independent basis, Debye):
    X=              0.0000    Y=             -0.0000    Z=              1.8999  Tot=              1.8999
 Quadrupole moment (field-independent basis, Debye-Ang):
   XX=            -20.7124   YY=            -27.5480   ZZ=            -22.7775
   XY=             -0.0000   XZ=             -0.0000   YZ=             -0.0000
 Traceless Quadrupole moment (field-independent basis, Debye-Ang):
   XX=              2.9669   YY=             -3.8687   ZZ=              0.9018
   XY=             -0.0000   XZ=             -0.0000   YZ=             -0.0000
 Octapole moment (field-independent basis, Debye-Ang**2):
  XXX=              0.0000  YYY=             -0.0000  ZZZ=             -0.0489  XYY=              0.0000
  XXY=              0.0000  XXZ=              0.1679  XZZ=              0.0000  YZZ=              0.0000
  YYZ=              2.1383  XYZ=              0.0000
 Hexadecapole moment (field-independent basis, Debye-Ang**3):
 XXXX=            -19.0247 YYYY=           -134.5224 ZZZZ=            -42.0277 XXXY=             -0.0000
 XXXZ=             -0.0000 YYYX=             -0.0000 YYYZ=             -0.0000 ZZZX=             -0.0000
 ZZZY=             -0.0000 XXYY=            -23.9984 XXZZ=             -9.8575 YYZZ=            -28.3020
 XXYZ=             -0.0000 YYXZ=             -0.0000 ZZXY=             -0.0000
 N-N= 1.076853651396D+02 E-N=-1.517786625402D+03  KE= 5.479702899427D+02
 Symmetry A1   KE= 3.939753323176D+02
 Symmetry A2   KE= 4.612225920028D+00
 Symmetry B1   KE= 3.933342639749D+01
 Symmetry B2   KE= 1.100493053076D+02
 B after Tr=    -0.030728    0.000000   -0.017741
         Rot=    1.000000    0.000000   -0.000000    0.000000 Ang=   0.00 deg.
 Final structure in terms of initial Z-matrix:
 S
 O,1,r
 O,1,r,2,a
      Variables:
 r=1.44103618
 a=118.44894204
 1\1\GINC-GAMBA\FOpt\RB3LYP\Gen\O2S1\IRIKURA\24-Feb-2022\0\\# b3lyp/gen
  opt freq\\SO2, B3LYP/pcseg-2\\0,1\S,0.0650422223,0.,0.0375521445\O,0.
 0845468211,0.,1.4784563212\O,1.3226541431,0.,-0.6660084657\\Version=ES
 64L-G16RevB.01\State=1-A1\HF=-548.723316\RMSD=9.384e-09\RMSF=6.595e-06
 \Dipole=-0.6473323,0.,-0.3737375\Quadrupole=-0.2162197,2.2058149,-1.98
 95952,0.,1.5357882,0.\PG=C02V [C2(S1),SGV(O2)]\\@


 IT IS THE BEHAVIOR AND DISTRIBUTION OF THE ELECTRONS 
 AROUND THE NUCLEUS THAT GIVES THE FUNDAMENTAL 
 CHARACTER OF AN ATOM:  IT MUST BE THE SAME FOR MOLECULES.

                               -- C. A. COULSON, 1951
 Job cpu time:       0 days  0 hours  1 minutes  5.2 seconds.
 Elapsed time:       0 days  0 hours  0 minutes 16.4 seconds.
 File lengths (MBytes):  RWF=     10 Int=      0 D2E=      0 Chk=      2 Scr=      1
 Normal termination of Gaussian 16 at Thu Feb 24 15:19:26 2022.
 Link1:  Proceeding to internal job step number  2.
 ------------------------------------------------------------------
 #N Geom=AllCheck Guess=TCheck SCRF=Check GenChk RB3LYP/ChkBas Freq
 ------------------------------------------------------------------
 1/10=4,29=7,30=1,38=1,40=1/1,3;
 2/12=2,40=1/2;
 3/5=7,6=2,11=2,14=-4,25=1,30=1,67=1,70=2,71=2,74=-5,82=7,116=1,140=1/1,2,3;
 4/5=101/1;
 5/5=2,38=6,98=1/2;
 8/6=4,10=90,11=11/1;
 11/6=1,8=1,9=11,15=111,16=1/1,2,10;
 10/6=1/2;
 6/7=2,8=2,9=2,10=2,28=1/1;
 7/8=1,10=1,25=1/1,2,3,16;
 1/10=4,30=1/3;
 99//99;
 Structure from the checkpoint file:  "/wrk/irikura/Gau-20174.chk"
 ------------------
 SO2, B3LYP/pcseg-2
 ------------------
 Charge =  0 Multiplicity = 1
 Redundant internal coordinates found in file.  (old form).
 S,0,0.0650422223,0.,0.0375521445
 O,0,0.0845468211,0.,1.4784563212
 O,0,1.3226541431,0.,-0.6660084657
 Recover connectivity data from disk.

 GradGradGradGradGradGradGradGradGradGradGradGradGradGradGradGradGradGrad
 Berny optimization.
 Initialization pass.
                           ----------------------------
                           !    Initial Parameters    !
                           ! (Angstroms and Degrees)  !
 --------------------------                            --------------------------
 ! Name  Definition              Value          Derivative Info.                !
 --------------------------------------------------------------------------------
 ! R1    R(1,2)                  1.441          calculate D2E/DX2 analytically  !
 ! R2    R(1,3)                  1.441          calculate D2E/DX2 analytically  !
 ! A1    A(2,1,3)              118.4489         calculate D2E/DX2 analytically  !
 --------------------------------------------------------------------------------
 Trust Radius=3.00D-01 FncErr=1.00D-07 GrdErr=1.00D-07 EigMax=2.50D+02 EigMin=1.00D-04
 Number of steps in this run=      2 maximum allowed number of steps=      2.
 GradGradGradGradGradGradGradGradGradGradGradGradGradGradGradGradGradGrad

                          Input orientation:                          
 ---------------------------------------------------------------------
 Center     Atomic      Atomic             Coordinates (Angstroms)
 Number     Number       Type             X           Y           Z
 ---------------------------------------------------------------------
      1         16           0        0.065042   -0.000000    0.037552
      2          8           0        0.084547   -0.000000    1.478456
      3          8           0        1.322654    0.000000   -0.666008
 ---------------------------------------------------------------------
                    Distance matrix (angstroms):
                    1          2          3
     1  S    0.000000
     2  O    1.441036   0.000000
     3  O    1.441036   2.476215   0.000000
 Stoichiometry    O2S
 Framework group  C2V[C2(S),SGV(O2)]
 Deg. of freedom     2
 Full point group                 C2V     NOp   4
 Largest Abelian subgroup         C2V     NOp   4
 Largest concise Abelian subgroup C2      NOp   2
                         Standard orientation:                         
 ---------------------------------------------------------------------
 Center     Atomic      Atomic             Coordinates (Angstroms)
 Number     Number       Type             X           Y           Z
 ---------------------------------------------------------------------
      1         16           0       -0.000000    0.000000    0.368672
      2          8           0        0.000000    1.238107   -0.368672
      3          8           0       -0.000000   -1.238107   -0.368672
 ---------------------------------------------------------------------
 Rotational constants (GHZ):          58.1321079          10.3059657           8.7540090
 Basis read from chk: "/wrk/irikura/Gau-20174.chk" (5D, 7F)
 There are    42 symmetry adapted cartesian basis functions of A1  symmetry.
 There are    14 symmetry adapted cartesian basis functions of A2  symmetry.
 There are    20 symmetry adapted cartesian basis functions of B1  symmetry.
 There are    33 symmetry adapted cartesian basis functions of B2  symmetry.
 There are    35 symmetry adapted basis functions of A1  symmetry.
 There are    13 symmetry adapted basis functions of A2  symmetry.
 There are    18 symmetry adapted basis functions of B1  symmetry.
 There are    28 symmetry adapted basis functions of B2  symmetry.
    94 basis functions,   172 primitive gaussians,   109 cartesian basis functions
    16 alpha electrons       16 beta electrons
       nuclear repulsion energy       107.6853651396 Hartrees.
 NAtoms=    3 NActive=    3 NUniq=    2 SFac= 2.25D+00 NAtFMM=   60 NAOKFM=F Big=F
 Integral buffers will be    131072 words long.
 Raffenetti 2 integral format.
 Two-electron integral symmetry is turned on.
 One-electron integrals computed using PRISM.
 NBasis=    94 RedAO= T EigKep=  4.09D-03  NBF=    35    13    18    28
 NBsUse=    94 1.00D-06 EigRej= -1.00D+00 NBFU=    35    13    18    28
 Initial guess from the checkpoint file:  "/wrk/irikura/Gau-20174.chk"
 B after Tr=     0.000000   -0.000000   -0.000000
         Rot=    1.000000    0.000000   -0.000000   -0.000000 Ang=   0.00 deg.
 Initial guess orbital symmetries:
       Occupied  (A1) (B2) (A1) (A1) (B1) (B2) (A1) (A1) (B2) (A1)
                 (B1) (B2) (A1) (A2) (B2) (A1)
       Virtual   (B1) (A1) (B2) (B1) (A1) (B2) (A1) (A1) (B2) (A2)
                 (B1) (A1) (B2) (A1) (B1) (A2) (A1) (B2) (A1) (B2)
                 (B1) (A2) (A1) (B2) (B2) (B1) (B1) (A2) (A1) (B2)
                 (A1) (A1) (B2) (B1) (A1) (A2) (B1) (B2) (B2) (A1)
                 (A1) (A2) (B1) (A1) (B2) (B2) (A1) (B1) (B2) (A1)
                 (A2) (A1) (B2) (A2) (B1) (A1) (A2) (B2) (A1) (B1)
                 (B1) (A1) (B2) (A2) (A1) (B2) (B2) (A2) (A1) (B1)
                 (B2) (B1) (A2) (B2) (A1) (A1) (B2) (A1)
 Keep R1 ints in memory in symmetry-blocked form, NReq=13721945.
 Requested convergence on RMS density matrix=1.00D-08 within 128 cycles.
 Requested convergence on MAX density matrix=1.00D-06.
 Requested convergence on             energy=1.00D-06.
 No special actions if energy rises.
 SCF Done:  E(RB3LYP) =  -548.723315995     A.U. after    1 cycles
            NFock=  1  Conv=0.46D-08     -V/T= 2.0014
 DoSCS=F DFT=T ScalE2(SS,OS)=  1.000000  1.000000
 Range of M.O.s used for correlation:     1    94
 NBasis=    94 NAE=    16 NBE=    16 NFC=     0 NFV=     0
 NROrb=     94 NOA=    16 NOB=    16 NVA=    78 NVB=    78
 Symmetrizing basis deriv contribution to polar:
 IMax=3 JMax=2 DiffMx= 0.00D+00
 G2DrvN: will do     4 centers at a time, making    1 passes.
 Calling FoFCou, ICntrl=  3107 FMM=F I1Cent=   0 AccDes= 0.00D+00.
 End of G2Drv F.D. properties file   721 does not exist.
 End of G2Drv F.D. properties file   722 does not exist.
 End of G2Drv F.D. properties file   788 does not exist.
          IDoAtm=111
          Differentiating once with respect to electric field.
                with respect to dipole field.
          Differentiating once with respect to nuclear coordinates.
 Keep R1 ints in memory in symmetry-blocked form, NReq=13711006.
          There are     9 degrees of freedom in the 1st order CPHF.  IDoFFX=4 NUNeed=     9.
      9 vectors produced by pass  0 Test12= 1.39D-14 1.11D-08 XBig12= 4.76D+01 5.59D+00.
 AX will form     9 AO Fock derivatives at one time.
      9 vectors produced by pass  1 Test12= 1.39D-14 1.11D-08 XBig12= 2.33D+01 1.76D+00.
      9 vectors produced by pass  2 Test12= 1.39D-14 1.11D-08 XBig12= 6.00D-01 3.73D-01.
      9 vectors produced by pass  3 Test12= 1.39D-14 1.11D-08 XBig12= 2.79D-02 8.09D-02.
      9 vectors produced by pass  4 Test12= 1.39D-14 1.11D-08 XBig12= 4.21D-04 6.96D-03.
      9 vectors produced by pass  5 Test12= 1.39D-14 1.11D-08 XBig12= 2.14D-06 3.73D-04.
      8 vectors produced by pass  6 Test12= 1.39D-14 1.11D-08 XBig12= 3.51D-09 1.53D-05.
      2 vectors produced by pass  7 Test12= 1.39D-14 1.11D-08 XBig12= 9.26D-12 8.62D-07.
      2 vectors produced by pass  8 Test12= 1.39D-14 1.11D-08 XBig12= 1.10D-14 3.35D-08.
 InvSVY:  IOpt=1 It=  1 EMax= 5.77D-16
 Solved reduced A of dimension    66 with     9 vectors.
 Isotropic polarizability for W=    0.000000       21.51 Bohr**3.
 End of Minotr F.D. properties file   721 does not exist.
 End of Minotr F.D. properties file   722 does not exist.
 End of Minotr F.D. properties file   788 does not exist.

 **********************************************************************

            Population analysis using the SCF Density.

 **********************************************************************

 Orbital symmetries:
       Occupied  (A1) (B2) (A1) (A1) (B1) (B2) (A1) (A1) (B2) (A1)
                 (B1) (B2) (A1) (A2) (B2) (A1)
       Virtual   (B1) (A1) (B2) (B1) (A1) (B2) (A1) (A1) (B2) (A2)
                 (B1) (A1) (B2) (A1) (B1) (A2) (A1) (B2) (A1) (B2)
                 (B1) (A2) (A1) (B2) (B2) (B1) (B1) (A2) (A1) (B2)
                 (A1) (A1) (B2) (B1) (A1) (A2) (B1) (B2) (B2) (A1)
                 (A1) (A2) (B1) (A1) (B2) (B2) (A1) (B1) (B2) (A1)
                 (A2) (A1) (B2) (A2) (B1) (A1) (A2) (B2) (A1) (B1)
                 (B1) (A1) (B2) (A2) (A1) (B2) (B2) (A2) (A1) (B1)
                 (B2) (B1) (A2) (B2) (A1) (A1) (B2) (A1)
 The electronic state is 1-A1.
 Alpha  occ. eigenvalues --  -89.02754 -19.18682 -19.18681  -8.10019  -6.06359
 Alpha  occ. eigenvalues --   -6.06125  -6.05716  -1.15327  -1.05978  -0.64522
 Alpha  occ. eigenvalues --   -0.50296  -0.50104  -0.50008  -0.38487  -0.37014
 Alpha  occ. eigenvalues --   -0.34383
 Alpha virt. eigenvalues --   -0.13887   0.03516   0.04683   0.19170   0.20223
 Alpha virt. eigenvalues --    0.27524   0.30695   0.32992   0.33120   0.35411
 Alpha virt. eigenvalues --    0.35846   0.37617   0.45388   0.48898   0.50270
 Alpha virt. eigenvalues --    0.50925   0.63087   0.66286   0.89922   0.93000
 Alpha virt. eigenvalues --    1.32958   1.38304   1.39386   1.42115   1.51768
 Alpha virt. eigenvalues --    1.59617   1.65271   1.65960   1.66090   1.67544
 Alpha virt. eigenvalues --    1.77122   1.89963   1.90723   1.96823   1.98945
 Alpha virt. eigenvalues --    2.10275   2.14976   2.20731   2.22036   2.36013
 Alpha virt. eigenvalues --    2.44777   2.47876   2.60707   2.74953   2.76392
 Alpha virt. eigenvalues --    2.84390   3.37856   3.39218   3.44769   3.52073
 Alpha virt. eigenvalues --    3.57302   3.66361   3.92713   3.92843   3.93841
 Alpha virt. eigenvalues --    3.94281   3.97444   4.05308   4.13411   4.22966
 Alpha virt. eigenvalues --    4.47698   4.48329   4.61111   4.64817   4.92136
 Alpha virt. eigenvalues --    4.94007   5.73837   5.96876   6.00441   6.01503
 Alpha virt. eigenvalues --    6.03325   6.35783   6.36639   6.38096   6.45473
 Alpha virt. eigenvalues --    6.65121   6.96993  30.45252
          Condensed to atoms (all electrons):
               1          2          3
     1  S   14.658085   0.260023   0.260023
     2  O    0.260023   8.207227  -0.056316
     3  O    0.260023  -0.056316   8.207227
 Mulliken charges:
               1
     1  S    0.821869
     2  O   -0.410934
     3  O   -0.410934
 Sum of Mulliken charges =  -0.00000
 Mulliken charges with hydrogens summed into heavy atoms:
               1
     1  S    0.821869
     2  O   -0.410934
     3  O   -0.410934
 APT charges:
               1
     1  S    1.148619
     2  O   -0.574309
     3  O   -0.574309
 Sum of APT charges =   0.00000
 APT charges with hydrogens summed into heavy atoms:
               1
     1  S    1.148619
     2  O   -0.574309
     3  O   -0.574309
 Electronic spatial extent (au):  <R**2>=            155.9328
 Charge=             -0.0000 electrons
 Dipole moment (field-independent basis, Debye):
    X=              0.0000    Y=              0.0000    Z=              1.8999  Tot=              1.8999
 Quadrupole moment (field-independent basis, Debye-Ang):
   XX=            -20.7124   YY=            -27.5480   ZZ=            -22.7775
   XY=             -0.0000   XZ=             -0.0000   YZ=             -0.0000
 Traceless Quadrupole moment (field-independent basis, Debye-Ang):
   XX=              2.9669   YY=             -3.8687   ZZ=              0.9018
   XY=             -0.0000   XZ=             -0.0000   YZ=             -0.0000
 Octapole moment (field-independent basis, Debye-Ang**2):
  XXX=              0.0000  YYY=             -0.0000  ZZZ=             -0.0489  XYY=              0.0000
  XXY=              0.0000  XXZ=              0.1679  XZZ=              0.0000  YZZ=              0.0000
  YYZ=              2.1383  XYZ=              0.0000
 Hexadecapole moment (field-independent basis, Debye-Ang**3):
 XXXX=            -19.0247 YYYY=           -134.5224 ZZZZ=            -42.0277 XXXY=             -0.0000
 XXXZ=             -0.0000 YYYX=             -0.0000 YYYZ=             -0.0000 ZZZX=             -0.0000
 ZZZY=             -0.0000 XXYY=            -23.9984 XXZZ=             -9.8575 YYZZ=            -28.3020
 XXYZ=             -0.0000 YYXZ=             -0.0000 ZZXY=             -0.0000
 N-N= 1.076853651396D+02 E-N=-1.517786625549D+03  KE= 5.479702896411D+02
 Symmetry A1   KE= 3.939753324873D+02
 Symmetry A2   KE= 4.612225657555D+00
 Symmetry B1   KE= 3.933342644663D+01
 Symmetry B2   KE= 1.100493050496D+02
  Exact polarizability:  14.025   0.000  31.811  -0.000  -0.000  18.700
 Approx polarizability:  22.040   0.000  64.596   0.000   0.000  28.064
 Calling FoFJK, ICntrl=    100127 FMM=F ISym2X=1 I1Cent= 0 IOpClX= 0 NMat=1 NMatS=1 NMatT=0.
 Full mass-weighted force constant matrix:
 Low frequencies ---  -11.7010   -8.4598   -6.1053   -0.0044   -0.0021   -0.0017
 Low frequencies ---  526.0554 1171.5841 1360.0983
 Diagonal vibrational polarizability:
        0.0000000       3.2654923       4.0006185
 Harmonic frequencies (cm**-1), IR intensities (KM/Mole), Raman scattering
 activities (A**4/AMU), depolarization ratios for plane and unpolarized
 incident light, reduced masses (AMU), force constants (mDyne/A),
 and normal coordinates:
                      1                      2                      3
                     A1                     A1                     B2
 Frequencies --    526.0554              1171.5841              1360.0983
 Red. masses --     18.5518                18.0145                20.3057
 Frc consts  --      3.0248                14.5686                22.1314
 IR Inten    --     34.1733                34.5518               224.4689
  Atom  AN      X      Y      Z        X      Y      Z        X      Y      Z
     1  16     0.00   0.00   0.40     0.00  -0.00   0.36     0.00   0.52   0.00
     2   8    -0.00  -0.51  -0.40    -0.00   0.56  -0.36     0.00  -0.52   0.31
     3   8    -0.00   0.51  -0.40    -0.00  -0.56  -0.36    -0.00  -0.52  -0.31

 -------------------
 - Thermochemistry -
 -------------------
 Temperature   298.150 Kelvin.  Pressure   1.00000 Atm.
 Atom     1 has atomic number 16 and mass  31.97207
 Atom     2 has atomic number  8 and mass  15.99491
 Atom     3 has atomic number  8 and mass  15.99491
 Molecular mass:    63.96190 amu.
 Principal axes and moments of inertia in atomic units:
                           1         2         3
     Eigenvalues --    31.04551 175.11617 206.16168
           X            0.00000   0.00000   1.00000
           Y            1.00000  -0.00000  -0.00000
           Z            0.00000   1.00000  -0.00000
 This molecule is an asymmetric top.
 Rotational symmetry number  2.
 Rotational temperatures (Kelvin)      2.78990     0.49461     0.42013
 Rotational constants (GHZ):          58.13211    10.30597     8.75401
 Zero-point vibrational energy      18289.3 (Joules/Mol)
                                    4.37126 (Kcal/Mol)
 Warning -- explicit consideration of   1 degrees of freedom as
           vibrations may cause significant error
 Vibrational temperatures:    756.88  1685.65  1956.88
          (Kelvin)
 
 Zero-point correction=                           0.006966 (Hartree/Particle)
 Thermal correction to Energy=                    0.010032
 Thermal correction to Enthalpy=                  0.010976
 Thermal correction to Gibbs Free Energy=        -0.017207
 Sum of electronic and zero-point Energies=           -548.716350
 Sum of electronic and thermal Energies=              -548.713284
 Sum of electronic and thermal Enthalpies=            -548.712340
 Sum of electronic and thermal Free Energies=         -548.740523
 
                     E (Thermal)             CV                S
                      KCal/Mol        Cal/Mol-Kelvin    Cal/Mol-Kelvin
 Total                    6.295              7.499             59.316
 Electronic               0.000              0.000              0.000
 Translational            0.889              2.981             38.386
 Rotational               0.889              2.981             20.266
 Vibrational              4.518              1.538              0.664
 Vibration     1          0.881              1.192              0.596
                       Q            Log10(Q)             Ln(Q)
 Total Bot       0.821549D+08          7.914634         18.224117
 Total V=0       0.131458D+12         11.118786         25.601952
 Vib (Bot)       0.681892D-03         -3.166285         -7.290640
 Vib (Bot)    1  0.305131D+00         -0.515514         -1.187016
 Vib (V=0)       0.109111D+01          0.037868          0.087195
 Vib (V=0)    1  0.108575D+01          0.035730          0.082272
 Electronic      0.100000D+01          0.000000          0.000000
 Translational   0.201065D+08          7.303336         16.816552
 Rotational      0.599214D+04          3.777582          8.698204
 ***** Axes restored to original set *****
 -------------------------------------------------------------------
 Center     Atomic                   Forces (Hartrees/Bohr)
 Number     Number              X              Y              Z
 -------------------------------------------------------------------
      1       16           0.000010219    0.000000000    0.000005900
      2        8          -0.000000301    0.000000000   -0.000011278
      3        8          -0.000009918   -0.000000000    0.000005378
 -------------------------------------------------------------------
 Cartesian Forces:  Max     0.000011278 RMS     0.000006615
 FormGI is forming the generalized inverse of G from B-inverse, IUseBI=4.

 GradGradGradGradGradGradGradGradGradGradGradGradGradGradGradGradGradGrad
 Berny optimization.
 Internal  Forces:  Max     0.000011281 RMS     0.000009214
 Search for a local minimum.
 Step number   1 out of a maximum of    2
 All quantities printed in internal units (Hartrees-Bohrs-Radians)
 Second derivative matrix not updated -- analytic derivatives used.
 The second derivative matrix:
                          R1        R2        A1
           R1           0.65183
           R2           0.00779   0.65183
           A1           0.02879   0.02879   0.39355
 ITU=  0
     Eigenvalues ---    0.38746   0.64404   0.66571
 Angle between quadratic step and forces=   6.83 degrees.
 Linear search not attempted -- first point.
 Iteration  1 RMS(Cart)=  0.00001180 RMS(Int)=  0.00000000
 Iteration  2 RMS(Cart)=  0.00000000 RMS(Int)=  0.00000000
 ClnCor:  largest displacement from symmetrization is 1.79D-13 for atom     3.
 Variable       Old X    -DE/DX   Delta X   Delta X   Delta X     New X
                                 (Linear)    (Quad)   (Total)
    R1        2.72316  -0.00001   0.00000  -0.00002  -0.00002   2.72315
    R2        2.72316  -0.00001   0.00000  -0.00002  -0.00002   2.72315
    A1        2.06732   0.00000   0.00000   0.00000   0.00000   2.06733
         Item               Value     Threshold  Converged?
 Maximum Force            0.000011     0.000450     YES
 RMS     Force            0.000009     0.000300     YES
 Maximum Displacement     0.000013     0.001800     YES
 RMS     Displacement     0.000012     0.001200     YES
 Predicted change in Energy=-1.953962D-10
 Optimization completed.
    -- Stationary point found.
                           ----------------------------
                           !   Optimized Parameters   !
                           ! (Angstroms and Degrees)  !
 --------------------------                            --------------------------
 ! Name  Definition              Value          Derivative Info.                !
 --------------------------------------------------------------------------------
 ! R1    R(1,2)                  1.441          -DE/DX =    0.0                 !
 ! R2    R(1,3)                  1.441          -DE/DX =    0.0                 !
 ! A1    A(2,1,3)              118.4489         -DE/DX =    0.0                 !
 --------------------------------------------------------------------------------
 GradGradGradGradGradGradGradGradGradGradGradGradGradGradGradGradGradGrad


 ----------------------------------------------------------------------

 Electric dipole moment (input orientation):
 (Debye = 10**-18 statcoulomb cm , SI units = C m)
                  (au)            (Debye)         (10**-30 SI)
   Tot        0.747473D+00      0.189989D+01      0.633734D+01
   x         -0.647331D+00     -0.164535D+01     -0.548830D+01
   y          0.000000D+00      0.000000D+00      0.000000D+00
   z         -0.373737D+00     -0.949944D+00     -0.316867D+01

 Dipole polarizability, Alpha (input orientation).
 (esu units = cm**3 , SI units = C**2 m**2 J**-1)
 Alpha(0;0):
               (au)            (10**-24 esu)      (10**-40 SI)
   iso        0.215119D+02      0.318774D+01      0.354684D+01
   aniso      0.159700D+02      0.236650D+01      0.263309D+01
   xx         0.219779D+02      0.325679D+01      0.362367D+01
   yx         0.000000D+00      0.000000D+00      0.000000D+00
   yy         0.140248D+02      0.207826D+01      0.231237D+01
   zx        -0.567694D+01     -0.841235D+00     -0.936000D+00
   zy         0.000000D+00      0.000000D+00      0.000000D+00
   zz         0.285331D+02      0.422816D+01      0.470447D+01

 ----------------------------------------------------------------------

 Dipole orientation:
    16          0.00000000          0.00000000         -0.14192654
     8         -2.33968375          0.00000000         -1.53530394
     8          2.33968375         -0.00000000         -1.53530394

 Electric dipole moment (dipole orientation):
 (Debye = 10**-18 statcoulomb cm , SI units = C m)
                  (au)            (Debye)         (10**-30 SI)
   Tot        0.747473D+00      0.189989D+01      0.633734D+01
   x          0.000000D+00      0.000000D+00      0.000000D+00
   y          0.000000D+00      0.000000D+00      0.000000D+00
   z          0.747473D+00      0.189989D+01      0.633734D+01

 Dipole polarizability, Alpha (dipole orientation).
 (esu units = cm**3 , SI units = C**2 m**2 J**-1)
 Alpha(0;0):
               (au)            (10**-24 esu)      (10**-40 SI)
   iso        0.215119D+02      0.318774D+01      0.354684D+01
   aniso      0.159700D+02      0.236650D+01      0.263309D+01
   xx         0.318107D+02      0.471385D+01      0.524487D+01
   yx         0.000000D+00      0.000000D+00      0.000000D+00
   yy         0.140248D+02      0.207826D+01      0.231237D+01
   zx         0.000000D+00      0.000000D+00      0.000000D+00
   zy         0.000000D+00      0.000000D+00      0.000000D+00
   zz         0.187003D+02      0.277110D+01      0.308327D+01

 ----------------------------------------------------------------------
 1\1\GINC-GAMBA\Freq\RB3LYP\Gen\O2S1\IRIKURA\24-Feb-2022\0\\#N Geom=All
 Check Guess=TCheck SCRF=Check GenChk RB3LYP/ChkBas Freq\\SO2, B3LYP/pc
 seg-2\\0,1\S,0.0650422223,0.,0.0375521445\O,0.0845468211,0.,1.47845632
 12\O,1.3226541431,0.,-0.6660084657\\Version=ES64L-G16RevB.01\State=1-A
 1\HF=-548.723316\RMSD=4.571e-09\RMSF=6.615e-06\ZeroPoint=0.006966\Ther
 mal=0.0100317\Dipole=-0.647331,0.,-0.3737367\DipoleDeriv=1.2574296,0.,
 -0.3416776,0.,0.5364614,0.,-0.3416776,0.,1.6519649,-0.4418058,0.,-0.11
 2154,0.,-0.2682307,0.,0.2380076,0.,-1.0128914,-0.8156238,0.,0.4538315,
 0.,-0.2682307,0.,0.1036699,0.,-0.6390735\Polar=21.9779084,0.,14.024761
 9,-5.6769366,0.,28.5330701\Quadrupole=-0.2162202,2.2058138,-1.9895936,
 0.,1.5357864,0.\PG=C02V [C2(S1),SGV(O2)]\NImag=0\\0.58640350,0.,-0.000
 08285,-0.21040985,0.,0.82936387,-0.06959834,0.,-0.04883941,0.05288555,
 0.,0.00004143,0.,0.,-0.00004237,0.00105427,0.,-0.63828535,-0.00246492,
 0.,0.65200756,-0.51680517,0.,0.25924926,0.01671279,0.,0.00141065,0.500
 09238,0.,0.00004143,0.,0.,0.00000095,0.,0.,-0.00004237,0.20935557,0.,-
 0.19107852,0.05130433,0.,-0.01372222,-0.26065990,0.,0.20480073\\-0.000
 01022,0.,-0.00000590,0.00000030,0.,0.00001128,0.00000992,0.,-0.0000053
 8\\\@


 If your ship doesn't come in, swim out to it!
                          -- Jonathan Winters
 Job cpu time:       0 days  0 hours  0 minutes 40.2 seconds.
 Elapsed time:       0 days  0 hours  0 minutes 10.0 seconds.
 File lengths (MBytes):  RWF=     10 Int=      0 D2E=      0 Chk=      2 Scr=      1
 Normal termination of Gaussian 16 at Thu Feb 24 15:19:36 2022.
