 Entering Gaussian System, Link 0=g16
 AtFile(1): pcseg2.gbs
            -H     0
            S   4   1.00
                  0.754732D+02           0.427821D-02
                  0.113575D+02           0.328672D-01
                  0.260081D+01           0.159578D+00
                  0.735503D+00           0.500000D+00
            S   1   1.00
                  0.231761D+00           1.0000000
            S   1   1.00
                  0.741675D-01           1.0000000
            P   1   1.00
                  0.160000D+01           1.0000000
            P   1   1.00
                  0.450000D+00           1.0000000
            D   1   1.00
                  0.125000D+01           1.0000000
            ****
            -C     0
            S   7   1.00
                  0.731999D+04           0.695369D-03
                  0.109818D+04           0.537138D-02
                  0.250014D+03           0.274734D-01
                  0.707586D+02           0.105078D+00
                  0.228595D+02           0.291262D+00
                  0.803936D+01           0.500000D+00
                  0.289309D+01           0.362224D+00
            S   2   1.00
                  0.521640D+01          -0.957844D-01
                  0.556124D+00           0.500000D+00
            S   1   1.00
                  0.228813D+00           1.0000000
            S   1   1.00
                  0.936338D-01           1.0000000
            P   4   1.00
                  0.339855D+02           0.818395D-02
                  0.772957D+01           0.586921D-01
                  0.224954D+01           0.222514D+00
                  0.767681D+00           0.500000D+00
            P   1   1.00
                  0.263283D+00           1.0000000
            P   1   1.00
                  0.848744D-01           1.0000000
            D   1   1.00
                  0.140000D+01           1.0000000
            D   1   1.00
                  0.450000D+00           1.0000000
            F   1   1.00
                  0.950000D+00           1.0000000
            ****
            -O     0
            S   7   1.00
                  0.135887D+05           0.665492D-03
                  0.203847D+04           0.514222D-02
                  0.464041D+03           0.263472D-01
                  0.131339D+03           0.101500D+00
                  0.425340D+02           0.285877D+00
                  0.150429D+02           0.500000D+00
                  0.546616D+01           0.368211D+00
            S   2   1.00
                  0.100915D+02          -0.100084D+00
                  0.110429D+01           0.500000D+00
            S   1   1.00
                  0.448082D+00           1.0000000
            S   1   1.00
                  0.175325D+00           1.0000000
            P   4   1.00
                  0.608220D+02           0.908253D-02
                  0.140332D+02           0.645878D-01
                  0.418244D+01           0.241502D+00
                  0.142490D+01           0.500000D+00
            P   1   1.00
                  0.478741D+00           1.0000000
            P   1   1.00
                  0.146257D+00           1.0000000
            D   1   1.00
                  0.220000D+01           1.0000000
            D   1   1.00
                  0.650000D+00           1.0000000
            F   1   1.00
                  0.110000D+01           1.0000000
            ****
            -N     0
            S   7   1.00
                  0.101643D+05           0.682757D-03
                  0.152481D+04           0.527488D-02
                  0.347119D+03           0.270037D-01
                  0.982389D+02           0.103673D+00
                  0.317799D+02           0.289575D+00
                  0.112240D+02           0.500000D+00
                  0.406611D+01           0.364621D+00
            S   2   1.00
                  0.747898D+01          -0.975681D-01
                  0.805040D+00           0.500000D+00
            S   1   1.00
                  0.324626D+00           1.0000000
            S   1   1.00
                  0.128132D+00           1.0000000
            P   4   1.00
                  0.482704D+02           0.829547D-02
                  0.110815D+02           0.596223D-01
                  0.326643D+01           0.227889D+00
                  0.111680D+01           0.500000D+00
            P   1   1.00
                  0.382049D+00           1.0000000
            P   1   1.00
                  0.121222D+00           1.0000000
            D   1   1.00
                  0.180000D+01           1.0000000
            D   1   1.00
                  0.550000D+00           1.0000000
            F   1   1.00
                  0.102000D+01           1.0000000
            ****
            -F     0
            S   7   1.00
                  0.174507D+05           0.655972D-03
                  0.261768D+04           0.506944D-02
                  0.595857D+03           0.259899D-01
                  0.168651D+03           0.100353D+00
                  0.546654D+02           0.284095D+00
                  0.193717D+02           0.500000D+00
                  0.706202D+01           0.370721D+00
            S   2   1.00
                  0.131197D+02          -0.101997D+00
                  0.145046D+01           0.500000D+00
            S   1   1.00
                  0.588255D+00           1.0000000
            S   1   1.00
                  0.227960D+00           1.0000000
            P   4   1.00
                  0.779407D+02           0.931135D-02
                  0.180425D+02           0.663964D-01
                  0.542342D+01           0.246386D+00
                  0.184876D+01           0.500000D+00
            P   1   1.00
                  0.617455D+00           1.0000000
            P   1   1.00
                  0.185496D+00           1.0000000
            D   1   1.00
                  0.280000D+01           1.0000000
            D   1   1.00
                  0.800000D+00           1.0000000
            F   1   1.00
                  0.120000D+01           1.0000000
            ****
            -Cl     0
            S   8   1.00
                  0.154272D+06           0.222473D-03
                  0.231232D+05           0.172590D-02
                  0.526257D+04           0.899286D-02
                  0.148995D+04           0.367724D-01
                  0.485417D+03           0.121446D+00
                  0.174634D+03           0.304148D+00
                  0.672393D+02           0.500000D+00
                  0.265780D+02           0.360252D+00
            S   3   1.00
                  0.131826D+03          -0.531330D-01
                  0.400703D+02          -0.233346D+00
                  0.789448D+01           0.500000D+00
            S   2   1.00
                  0.427711D+01           0.500000D+00
                  0.196233D+01           0.370517D+00
            S   1   1.00
                  0.520793D+00           1.0000000
            S   1   1.00
                  0.181633D+00           1.0000000
            P   7   1.00
                  0.124440D+04           0.988206D-03
                  0.295109D+03           0.829674D-02
                  0.947224D+02           0.430906D-01
                  0.352588D+02           0.148443D+00
                  0.144211D+02           0.344744D+00
                  0.610371D+01           0.500000D+00
                  0.258886D+01           0.348278D+00
            P   2   1.00
                  0.109447D+02          -0.196768D-01
                  0.104413D+01           0.500000D+00
            P   1   1.00
                  0.376184D+00           1.0000000
            P   1   1.00
                  0.120613D+00           1.0000000
            D   1   1.00
                  0.231000D+01           1.0000000
            D   1   1.00
                  0.520000D+00           1.0000000
            F   1   1.00
                  0.720000D+00           1.0000000
            ****
            -S     0
            S   8   1.00
                  0.134700D+06           0.226231D-03
                  0.201904D+05           0.175488D-02
                  0.459528D+04           0.914190D-02
                  0.130109D+04           0.373551D-01
                  0.423902D+03           0.123121D+00
                  0.152485D+03           0.306801D+00
                  0.586925D+02           0.500000D+00
                  0.231461D+02           0.354358D+00
            S   3   1.00
                  0.116327D+03          -0.491772D-01
                  0.352841D+02          -0.215962D+00
                  0.677831D+01           0.500000D+00
            S   2   1.00
                  0.360404D+01           0.500000D+00
                  0.164871D+01           0.366278D+00
            S   1   1.00
                  0.421821D+00           1.0000000
            S   1   1.00
                  0.147554D+00           1.0000000
            P   7   1.00
                  0.104863D+04           0.105273D-02
                  0.248717D+03           0.879338D-02
                  0.797887D+02           0.453358D-01
                  0.296023D+02           0.154476D+00
                  0.120627D+02           0.352366D+00
                  0.507628D+01           0.500000D+00
                  0.213375D+01           0.346429D+00
            P   2   1.00
                  0.928958D+01          -0.185932D-01
                  0.837819D+00           0.500000D+00
            P   1   1.00
                  0.301495D+00           1.0000000
            P   1   1.00
                  0.974740D-01           1.0000000
            D   1   1.00
                  0.210000D+01           1.0000000
            D   1   1.00
                  0.480000D+00           1.0000000
            F   1   1.00
                  0.660000D+00           1.0000000
            ****
            -Br     0
            S    10   1.00
                  0.233625D+07           0.532336D-04
                  0.349961D+06           0.413715D-03
                  0.796444D+05           0.217123D-02
                  0.225555D+05           0.910109D-02
                  0.735546D+04           0.323789D-01
                  0.265352D+04           0.988755D-01
                  0.103517D+04           0.248138D+00
                  0.422205D+03           0.474328D+00
                  0.180035D+03           0.500000D+00
                  0.793308D+02           0.187769D+00
            S    4   1.00
                  0.620834D+03          -0.226511D-01
                  0.190829D+03          -0.109497D+00
                  0.312505D+02           0.500000D+00
                  0.135270D+02           0.492812D+00
            S    2   1.00
                  0.216097D+02          -0.165418D+00
                  0.372566D+01           0.500000D+00
            S    1   1.00
                  0.169770D+01           1.0000000
            S    1   1.00
                  0.489332D+00           1.0000000
            S    1   1.00
                  0.175712D+00           1.0000000
            P    8   1.00
                  0.960829D+04           0.478974D-03
                  0.227618D+04           0.417853D-02
                  0.736723D+03           0.229315D-01
                  0.281579D+03           0.892653D-01
                  0.118395D+03           0.255288D+00
                  0.527481D+02           0.479074D+00
                  0.245098D+02           0.500000D+00
                  0.112009D+02           0.200944D+00
            P    4   1.00
                  0.587849D+02          -0.189674D-01
                  0.918962D+01           0.264104D+00
                  0.413895D+01           0.500000D+00
                  0.184225D+01           0.319316D+00
            P    1   1.00
                  0.713862D+00           1.0000000
            P    1   1.00
                  0.274232D+00           1.0000000
            P    1   1.00
                  0.944411D-01           1.0000000
            D    7   1.00
                  0.398470D+03           0.204066D-02
                  0.118967D+03           0.175171D-01
                  0.450197D+02           0.829708D-01
                  0.190320D+02           0.236284D+00
                  0.855686D+01           0.428468D+00
                  0.382950D+01           0.500000D+00
                  0.166291D+01           0.349360D+00
            D    1   1.00
                  0.672953D+00           1.0000000
            D    1   1.00
                  0.252000D+00           1.0000000
            F    1   1.00
                  0.530000D+00           1.0000000
            ****
            -Si     0
            S    8   1.00
                  0.996133D+05           0.235546D-03
                  0.149311D+05           0.182707D-02
                  0.339820D+04           0.951425D-02
                  0.962140D+03           0.388172D-01
                  0.313430D+03           0.127328D+00
                  0.112683D+03           0.313522D+00
                  0.433372D+02           0.500000D+00
                  0.170029D+02           0.340347D+00
            S    3   1.00
                  0.884208D+02          -0.404451D-01
                  0.266756D+02          -0.178059D+00
                  0.479640D+01           0.500000D+00
            S    2   1.00
                  0.239385D+01           0.500000D+00
                  0.108333D+01           0.338016D+00
            S    1   1.00
                  0.252420D+00           1.0000000
            S    1   1.00
                  0.891210D-01           1.0000000
            P    7   1.00
                  0.709901D+03           0.123028D-02
                  0.168426D+03           0.101366D-01
                  0.539946D+02           0.511840D-01
                  0.198646D+02           0.169967D+00
                  0.801369D+01           0.370717D+00
                  0.331870D+01           0.500000D+00
                  0.136112D+01           0.344128D+00
            P    2   1.00
                  0.622158D+01          -0.166609D-01
                  0.503049D+00           0.500000D+00
            P    1   1.00
                  0.179848D+00           1.0000000
            P    1   1.00
                  0.591912D-01           1.0000000
            D    1   1.00
                  0.168000D+01           1.0000000
            D    1   1.00
                  0.380000D+00           1.0000000
            F    1   1.00
                  0.540000D+00           1.0000000
            ****
            -P     0
            S    8   1.00
                  0.116416D+06           0.230715D-03
                  0.174500D+05           0.178960D-02
                  0.397149D+04           0.932116D-02
                  0.112447D+04           0.380591D-01
                  0.366347D+03           0.125148D+00
                  0.131757D+03           0.310022D+00
                  0.506988D+02           0.500000D+00
                  0.199436D+02           0.347528D+00
            S    3   1.00
                  0.101878D+03          -0.446755D-01
                  0.308249D+02          -0.196376D+00
                  0.573688D+01           0.500000D+00
            S    2   1.00
                  0.296868D+01           0.500000D+00
                  0.135315D+01           0.355098D+00
            S    1   1.00
                  0.332196D+00           1.0000000
            S    1   1.00
                  0.116229D+00           1.0000000
            P    7   1.00
                  0.873928D+03           0.112375D-02
                  0.207298D+03           0.933330D-02
                  0.664628D+02           0.477213D-01
                  0.245665D+02           0.160733D+00
                  0.996820D+01           0.359760D+00
                  0.416536D+01           0.500000D+00
                  0.173022D+01           0.346593D+00
            P    2   1.00
                  0.772530D+01          -0.175718D-01
                  0.657252D+00           0.500000D+00
            P    1   1.00
                  0.239903D+00           1.0000000
            P    1   1.00
                  0.800988D-01           1.0000000
            D    1   1.00
                  0.189000D+01           1.0000000
            D    1   1.00
                  0.430000D+00           1.0000000
            F    1   1.00
                  0.600000D+00           1.0000000
            ****
            
 Initial command:
 /usr/local/apps/g16_b01_avx/g16/l1.exe "/wrk/irikura/Gau-19466.inp" -scrdir="/wrk/irikura/"
 Entering Link 1 = /usr/local/apps/g16_b01_avx/g16/l1.exe PID=     19468.
  
 Copyright (c) 1988-2017, Gaussian, Inc.  All Rights Reserved.
  
 This is part of the Gaussian(R) 16 program.  It is based on
 the Gaussian(R) 09 system (copyright 2009, Gaussian, Inc.),
 the Gaussian(R) 03 system (copyright 2003, Gaussian, Inc.),
 the Gaussian(R) 98 system (copyright 1998, Gaussian, Inc.),
 the Gaussian(R) 94 system (copyright 1995, Gaussian, Inc.),
 the Gaussian 92(TM) system (copyright 1992, Gaussian, Inc.),
 the Gaussian 90(TM) system (copyright 1990, Gaussian, Inc.),
 the Gaussian 88(TM) system (copyright 1988, Gaussian, Inc.),
 the Gaussian 86(TM) system (copyright 1986, Carnegie Mellon
 University), and the Gaussian 82(TM) system (copyright 1983,
 Carnegie Mellon University). Gaussian is a federally registered
 trademark of Gaussian, Inc.
  
 This software contains proprietary and confidential information,
 including trade secrets, belonging to Gaussian, Inc.
  
 This software is provided under written license and may be
 used, copied, transmitted, or stored only in accord with that
 written license.
  
 The following legend is applicable only to US Government
 contracts under FAR:
  
                    RESTRICTED RIGHTS LEGEND
  
 Use, reproduction and disclosure by the US Government is
 subject to restrictions as set forth in subparagraphs (a)
 and (c) of the Commercial Computer Software - Restricted
 Rights clause in FAR 52.227-19.
  
 Gaussian, Inc.
 340 Quinnipiac St., Bldg. 40, Wallingford CT 06492
  
  
 ---------------------------------------------------------------
 Warning -- This program may not be used in any manner that
 competes with the business of Gaussian, Inc. or will provide
 assistance to any competitor of Gaussian, Inc.  The licensee
 of this program is prohibited from giving any competitor of
 Gaussian, Inc. access to this program.  By using this program,
 the user acknowledges that Gaussian, Inc. is engaged in the
 business of creating and licensing software in the field of
 computational chemistry and represents and warrants to the
 licensee that it is not a competitor of Gaussian, Inc. and that
 it will not use this program in any manner prohibited above.
 ---------------------------------------------------------------
  

 Cite this work as:
 Gaussian 16, Revision B.01,
 M. J. Frisch, G. W. Trucks, H. B. Schlegel, G. E. Scuseria, 
 M. A. Robb, J. R. Cheeseman, G. Scalmani, V. Barone, 
 G. A. Petersson, H. Nakatsuji, X. Li, M. Caricato, A. V. Marenich, 
 J. Bloino, B. G. Janesko, R. Gomperts, B. Mennucci, H. P. Hratchian, 
 J. V. Ortiz, A. F. Izmaylov, J. L. Sonnenberg, D. Williams-Young, 
 F. Ding, F. Lipparini, F. Egidi, J. Goings, B. Peng, A. Petrone, 
 T. Henderson, D. Ranasinghe, V. G. Zakrzewski, J. Gao, N. Rega, 
 G. Zheng, W. Liang, M. Hada, M. Ehara, K. Toyota, R. Fukuda, 
 J. Hasegawa, M. Ishida, T. Nakajima, Y. Honda, O. Kitao, H. Nakai, 
 T. Vreven, K. Throssell, J. A. Montgomery, Jr., J. E. Peralta, 
 F. Ogliaro, M. J. Bearpark, J. J. Heyd, E. N. Brothers, K. N. Kudin, 
 V. N. Staroverov, T. A. Keith, R. Kobayashi, J. Normand, 
 K. Raghavachari, A. P. Rendell, J. C. Burant, S. S. Iyengar, 
 J. Tomasi, M. Cossi, J. M. Millam, M. Klene, C. Adamo, R. Cammi, 
 J. W. Ochterski, R. L. Martin, K. Morokuma, O. Farkas, 
 J. B. Foresman, and D. J. Fox, Gaussian, Inc., Wallingford CT, 2016.
 
 ******************************************
 Gaussian 16:  ES64L-G16RevB.01 20-Dec-2017
                16-Jun-2022 
 ******************************************
 %mem=1000mw
 %nprocs=12
 Will use up to   12 processors via shared memory.
 -------------------------------
 # b3lyp/gen opt freq symm=loose
 -------------------------------
 1/18=20,19=15,26=3,38=1/1,3;
 2/9=110,12=2,17=4,18=3,40=1/2;
 3/5=7,11=2,25=1,30=1,71=1,74=-5/1,2,3;
 4//1;
 5/5=2,38=5/2;
 6/7=2,8=2,9=2,10=2,28=1/1;
 7//1,2,3,16;
 1/18=20,19=15,26=3/3(2);
 2/9=110/2;
 99//99;
 2/9=110/2;
 3/5=7,6=1,11=2,25=1,30=1,71=1,74=-5,82=7/1,2,3;
 4/5=5,16=3,69=1/1;
 5/5=2,38=5/2;
 7//1,2,3,16;
 1/18=20,19=15,26=3/3(-5);
 2/9=110/2;
 6/7=2,8=2,9=2,10=2,19=2,28=1/1;
 99/9=1/99;
 -------------------------
 term-butyl, B3LYP/pcseg-2
 -------------------------
 Symbolic Z-matrix:
 Charge =  0 Multiplicity = 2
 C                     0.        0.        0.15256 
 C                     0.        1.48536  -0.01514 
 C                     1.28636  -0.74268  -0.01514 
 C                    -1.28636  -0.74268  -0.01514 
 H                     0.        1.7823   -1.07964 
 H                     1.54351  -0.89115  -1.07964 
 H                    -1.54351  -0.89115  -1.07964 
 H                    -0.88553   1.94799   0.43269 
 H                     0.88553   1.94799   0.43269 
 H                     2.12977  -0.20711   0.43269 
 H                     1.24425  -1.74089   0.43269 
 H                    -1.24425  -1.74089   0.43269 
 H                    -2.12977  -0.20711   0.43269 
 

 GradGradGradGradGradGradGradGradGradGradGradGradGradGradGradGradGradGrad
 Berny optimization.
 Initialization pass.
                           ----------------------------
                           !    Initial Parameters    !
                           ! (Angstroms and Degrees)  !
 --------------------------                            --------------------------
 ! Name  Definition              Value          Derivative Info.                !
 --------------------------------------------------------------------------------
 ! R1    R(1,2)                  1.4948         estimate D2E/DX2                !
 ! R2    R(1,3)                  1.4948         estimate D2E/DX2                !
 ! R3    R(1,4)                  1.4948         estimate D2E/DX2                !
 ! R4    R(2,5)                  1.1051         estimate D2E/DX2                !
 ! R5    R(2,8)                  1.0949         estimate D2E/DX2                !
 ! R6    R(2,9)                  1.0949         estimate D2E/DX2                !
 ! R7    R(3,6)                  1.1051         estimate D2E/DX2                !
 ! R8    R(3,10)                 1.0949         estimate D2E/DX2                !
 ! R9    R(3,11)                 1.0949         estimate D2E/DX2                !
 ! R10   R(4,7)                  1.1051         estimate D2E/DX2                !
 ! R11   R(4,12)                 1.0949         estimate D2E/DX2                !
 ! R12   R(4,13)                 1.0949         estimate D2E/DX2                !
 ! A1    A(2,1,3)              118.7586         estimate D2E/DX2                !
 ! A2    A(2,1,4)              118.7586         estimate D2E/DX2                !
 ! A3    A(3,1,4)              118.7586         estimate D2E/DX2                !
 ! A4    A(1,2,5)              112.0277         estimate D2E/DX2                !
 ! A5    A(1,2,8)              111.9619         estimate D2E/DX2                !
 ! A6    A(1,2,9)              111.9619         estimate D2E/DX2                !
 ! A7    A(5,2,8)              106.2873         estimate D2E/DX2                !
 ! A8    A(5,2,9)              106.2873         estimate D2E/DX2                !
 ! A9    A(8,2,9)              107.9569         estimate D2E/DX2                !
 ! A10   A(1,3,6)              112.0277         estimate D2E/DX2                !
 ! A11   A(1,3,10)             111.962          estimate D2E/DX2                !
 ! A12   A(1,3,11)             111.962          estimate D2E/DX2                !
 ! A13   A(6,3,10)             106.2873         estimate D2E/DX2                !
 ! A14   A(6,3,11)             106.2873         estimate D2E/DX2                !
 ! A15   A(10,3,11)            107.9568         estimate D2E/DX2                !
 ! A16   A(1,4,7)              112.0277         estimate D2E/DX2                !
 ! A17   A(1,4,12)             111.962          estimate D2E/DX2                !
 ! A18   A(1,4,13)             111.962          estimate D2E/DX2                !
 ! A19   A(7,4,12)             106.2873         estimate D2E/DX2                !
 ! A20   A(7,4,13)             106.2873         estimate D2E/DX2                !
 ! A21   A(12,4,13)            107.9568         estimate D2E/DX2                !
 ! D1    D(3,1,2,5)             79.0036         estimate D2E/DX2                !
 ! D2    D(3,1,2,8)           -161.6977         estimate D2E/DX2                !
 ! D3    D(3,1,2,9)            -40.2951         estimate D2E/DX2                !
 ! D4    D(4,1,2,5)            -79.0036         estimate D2E/DX2                !
 ! D5    D(4,1,2,8)             40.2951         estimate D2E/DX2                !
 ! D6    D(4,1,2,9)            161.6977         estimate D2E/DX2                !
 ! D7    D(2,1,3,6)            -79.0036         estimate D2E/DX2                !
 ! D8    D(2,1,3,10)            40.2951         estimate D2E/DX2                !
 ! D9    D(2,1,3,11)           161.6977         estimate D2E/DX2                !
 ! D10   D(4,1,3,6)             79.0037         estimate D2E/DX2                !
 ! D11   D(4,1,3,10)          -161.6976         estimate D2E/DX2                !
 ! D12   D(4,1,3,11)           -40.2951         estimate D2E/DX2                !
 ! D13   D(2,1,4,7)             79.0036         estimate D2E/DX2                !
 ! D14   D(2,1,4,12)          -161.6977         estimate D2E/DX2                !
 ! D15   D(2,1,4,13)           -40.2951         estimate D2E/DX2                !
 ! D16   D(3,1,4,7)            -79.0037         estimate D2E/DX2                !
 ! D17   D(3,1,4,12)            40.2951         estimate D2E/DX2                !
 ! D18   D(3,1,4,13)           161.6976         estimate D2E/DX2                !
 --------------------------------------------------------------------------------
 Trust Radius=3.00D-01 FncErr=1.00D-07 GrdErr=1.00D-06 EigMax=2.50D+02 EigMin=1.00D-04
 Number of steps in this run=     61 maximum allowed number of steps=    100.
 GradGradGradGradGradGradGradGradGradGradGradGradGradGradGradGradGradGrad

                          Input orientation:                          
 ---------------------------------------------------------------------
 Center     Atomic      Atomic             Coordinates (Angstroms)
 Number     Number       Type             X           Y           Z
 ---------------------------------------------------------------------
      1          6           0        0.000000    0.000000    0.152555
      2          6           0        0.000000    1.485356   -0.015142
      3          6           0        1.286356   -0.742678   -0.015142
      4          6           0       -1.286356   -0.742678   -0.015142
      5          1           0        0.000000    1.782295   -1.079644
      6          1           0        1.543513   -0.891147   -1.079644
      7          1           0       -1.543513   -0.891147   -1.079644
      8          1           0       -0.885528    1.947990    0.432692
      9          1           0        0.885528    1.947990    0.432692
     10          1           0        2.129773   -0.207106    0.432692
     11          1           0        1.244245   -1.740885    0.432692
     12          1           0       -1.244245   -1.740885    0.432692
     13          1           0       -2.129773   -0.207106    0.432692
 ---------------------------------------------------------------------
                    Distance matrix (angstroms):
                    1          2          3          4          5
     1  C    0.000000
     2  C    1.494793   0.000000
     3  C    1.494793   2.572712   0.000000
     4  C    1.494793   2.572712   2.572712   0.000000
     5  H    2.166769   1.105141   3.027105   3.027105   0.000000
     6  H    2.166769   3.027105   1.105141   3.027105   3.087025
     7  H    2.166769   3.027105   3.027105   1.105141   3.087025
     8  H    2.158078   1.094872   3.486736   2.756975   1.760334
     9  H    2.158078   1.094872   2.756975   3.486736   1.760334
    10  H    2.158078   2.756976   1.094872   3.486736   3.283414
    11  H    2.158079   3.486737   1.094873   2.756976   4.030894
    12  H    2.158079   3.486737   2.756976   1.094873   4.030894
    13  H    2.158078   2.756976   3.486736   1.094872   3.283414
                    6          7          8          9         10
     6  H    0.000000
     7  H    3.087026   0.000000
     8  H    4.030893   3.283413   0.000000
     9  H    3.283413   4.030893   1.771056   0.000000
    10  H    1.760333   4.030893   3.706276   2.488490   0.000000
    11  H    1.760334   3.283414   4.259546   3.706275   1.771056
    12  H    3.283414   1.760334   3.706275   4.259546   3.706275
    13  H    4.030893   1.760333   2.488490   3.706276   4.259546
                   11         12         13
    11  H    0.000000
    12  H    2.488490   0.000000
    13  H    3.706275   1.771056   0.000000
 Stoichiometry    C4H9(2)
 Framework group  C3V[C3(C),3SGV(CH),X(H6)]
 Deg. of freedom     7
 Full point group                 C3V     NOp   6
 Largest Abelian subgroup         CS      NOp   2
 Largest concise Abelian subgroup CS      NOp   2
                         Standard orientation:                         
 ---------------------------------------------------------------------
 Center     Atomic      Atomic             Coordinates (Angstroms)
 Number     Number       Type             X           Y           Z
 ---------------------------------------------------------------------
      1          6           0       -0.000000    0.000000    0.152555
      2          6           0        0.000000    1.485356   -0.015142
      3          6           0        1.286356   -0.742678   -0.015142
      4          6           0       -1.286356   -0.742678   -0.015142
      5          1           0        0.000000    1.782295   -1.079644
      6          1           0        1.543513   -0.891148   -1.079644
      7          1           0       -1.543513   -0.891148   -1.079644
      8          1           0       -0.885528    1.947990    0.432692
      9          1           0        0.885528    1.947990    0.432692
     10          1           0        2.129773   -0.207105    0.432692
     11          1           0        1.244245   -1.740885    0.432692
     12          1           0       -1.244245   -1.740885    0.432692
     13          1           0       -2.129773   -0.207105    0.432692
 ---------------------------------------------------------------------
 Rotational constants (GHZ):           7.9843773           7.9843773           4.3299003
 General basis read from cards:  (5D, 7F)
 There are   154 symmetry adapted cartesian basis functions of A'  symmetry.
 There are   121 symmetry adapted cartesian basis functions of A"  symmetry.
 There are   136 symmetry adapted basis functions of A'  symmetry.
 There are   110 symmetry adapted basis functions of A"  symmetry.
   246 basis functions,   366 primitive gaussians,   275 cartesian basis functions
    17 alpha electrons       16 beta electrons
       nuclear repulsion energy       125.1931005736 Hartrees.
 NAtoms=   13 NActive=   13 NUniq=    4 SFac= 4.00D+00 NAtFMM=   60 NAOKFM=F Big=F
 Integral buffers will be    131072 words long.
 Raffenetti 2 integral format.
 Two-electron integral symmetry is turned on.
 One-electron integrals computed using PRISM.
 NBasis=   246 RedAO= T EigKep=  4.49D-04  NBF=   136   110
 NBsUse=   246 1.00D-06 EigRej= -1.00D+00 NBFU=   136   110
 ExpMin= 7.42D-02 ExpMax= 7.32D+03 ExpMxC= 2.50D+02 IAcc=3 IRadAn=         5 AccDes= 0.00D+00
 Harris functional with IExCor=  402 and IRadAn=       5 diagonalized for initial guess.
 HarFok:  IExCor=  402 AccDes= 0.00D+00 IRadAn=         5 IDoV= 1 UseB2=F ITyADJ=14
 ICtDFT=  3500011 ScaDFX=  1.000000  1.000000  1.000000  1.000000
 FoFCou: FMM=F IPFlag=           0 FMFlag=      100000 FMFlg1=           0
         NFxFlg=           0 DoJE=T BraDBF=F KetDBF=T FulRan=T
         wScrn=  0.000000 ICntrl=       500 IOpCl=  0 I1Cent=   200000004 NGrid=           0
         NMat0=    1 NMatS0=      1 NMatT0=    0 NMatD0=    1 NMtDS0=    0 NMtDT0=    0
 Petite list used in FoFCou.
 Initial guess orbital symmetries:
 Alpha Orbitals:
       Occupied  (E) (E) (A1) (A1) (A1) (E) (E) (A1) (E) (E) (A1)
                 (E) (E) (A2) (E) (E) (A1)
       Virtual   (A1) (E) (E) (E) (E) (A1) (A1) (E) (E) (A2) (E)
                 (E) (A1) (E) (E) (E) (E) (A1) (E) (E) (A2) (A1)
                 (A1) (A1) (E) (E) (E) (E) (A2) (E) (E) (A1) (E)
                 (E) (A1) (E) (E) (E) (E) (A1) (E) (E) (A2) (E)
                 (E) (A1) (E) (E) (E) (E) (A2) (E) (E) (A2) (A1)
                 (E) (E) (A1) (A2) (E) (E) (E) (E) (A1) (E) (E)
                 (A1) (A1) (E) (E) (A1) (E) (E) (E) (E) (A1) (E)
                 (E) (A2) (E) (E) (A2) (A1) (E) (E) (A2) (E) (E)
                 (A1) (E) (E) (A1) (E) (E) (A1) (E) (E) (A1) (E)
                 (E) (E) (E) (E) (E) (A2) (A1) (E) (E) (A2) (A1)
                 (E) (E) (A1) (E) (E) (A2) (E) (E) (A1) (E) (E)
                 (A2) (E) (E) (A1) (E) (E) (E) (E) (A1) (A2) (E)
                 (E) (E) (E) (A1) (E) (E) (A2) (A2) (E) (E) (A1)
                 (A2) (E) (E) (E) (E) (A1) (E) (E) (E) (E) (A1)
                 (E) (E) (E) (E) (A1) (A2) (E) (E) (A2) (A1) (E)
                 (E) (A1) (E) (E) (E) (E) (E) (E) (A2) (A1) (E)
                 (E) (E) (E) (A1) (E) (E) (A2) (A1) (A1) (E) (E)
                 (E) (E) (A2) (E) (E) (A1) (A1) (E) (E) (E) (E)
                 (E) (E) (A1) (A2) (E) (E) (A2) (E) (E) (A1) (E)
                 (E) (A2) (A1) (E) (E) (E) (E) (A1) (A2) (E) (E)
                 (E) (E) (A1) (E) (E) (E) (E) (A2) (A1)
 Beta  Orbitals:
       Occupied  (E) (E) (A1) (A1) (A1) (E) (E) (A1) (E) (E) (A1)
                 (E) (E) (A2) (E) (E)
       Virtual   (A1) (A1) (E) (E) (E) (E) (A1) (A1) (E) (E) (A2)
                 (E) (E) (A1) (E) (E) (E) (E) (A1) (E) (E) (A2)
                 (A1) (A1) (A1) (E) (E) (E) (E) (A2) (E) (E) (A1)
                 (E) (E) (A1) (E) (E) (E) (E) (A1) (E) (E) (A2)
                 (E) (E) (A1) (E) (E) (E) (E) (A2) (E) (E) (A2)
                 (A1) (E) (E) (A1) (A2) (E) (E) (E) (E) (A1) (E)
                 (E) (A1) (A1) (E) (E) (A1) (E) (E) (E) (E) (A1)
                 (E) (E) (A2) (E) (E) (A2) (A1) (E) (E) (A2) (E)
                 (E) (A1) (E) (E) (A1) (E) (E) (A1) (E) (E) (A1)
                 (E) (E) (E) (E) (E) (E) (A2) (A1) (E) (E) (A2)
                 (A1) (E) (E) (A1) (E) (E) (A2) (E) (E) (A1) (E)
                 (E) (A2) (E) (E) (A1) (E) (E) (E) (E) (A1) (A2)
                 (E) (E) (E) (E) (A1) (E) (E) (A2) (A2) (E) (E)
                 (A1) (A2) (E) (E) (E) (E) (A1) (E) (E) (E) (E)
                 (A1) (E) (E) (E) (E) (A1) (A2) (E) (E) (A2) (A1)
                 (E) (E) (A1) (E) (E) (E) (E) (E) (E) (A2) (A1)
                 (E) (E) (E) (E) (A1) (E) (E) (A2) (A1) (A1) (E)
                 (E) (E) (E) (A2) (E) (E) (A1) (A1) (E) (E) (E)
                 (E) (E) (E) (A1) (A2) (E) (E) (A2) (E) (E) (A1)
                 (E) (E) (A2) (A1) (E) (E) (E) (E) (A1) (A2) (E)
                 (E) (E) (E) (A1) (E) (E) (E) (E) (A2) (A1)
 The electronic state of the initial guess is 2-A1.
 Initial guess <Sx>= 0.0000 <Sy>= 0.0000 <Sz>= 0.5000 <S**2>= 0.7500 S= 0.5000
 Keep R1 and R2 ints in memory in symmetry-blocked form, NReq=692524364.
 Requested convergence on RMS density matrix=1.00D-08 within 128 cycles.
 Requested convergence on MAX density matrix=1.00D-06.
 Requested convergence on             energy=1.00D-06.
 No special actions if energy rises.
 Integral accuracy reduced to 1.0D-05 until final iterations.
 Initial convergence to 1.0D-05 achieved.  Increase integral accuracy.
 SCF Done:  E(UB3LYP) =  -157.864581094     A.U. after   13 cycles
            NFock= 13  Conv=0.32D-08     -V/T= 2.0050
 <Sx>= 0.0000 <Sy>= 0.0000 <Sz>= 0.5000 <S**2>= 0.7542 S= 0.5021
 <L.S>=  0.00000000000    
 Annihilation of the first spin contaminant:
 S**2 before annihilation     0.7542,   after     0.7500

 **********************************************************************

            Population analysis using the SCF Density.

 **********************************************************************

 Orbital symmetries:
 Alpha Orbitals:
       Occupied  (A1) (E) (E) (A1) (A1) (E) (E) (A1) (A1) (E) (E)
                 (E) (E) (A2) (E) (E) (A1)
       Virtual   (A1) (E) (E) (A1) (E) (E) (E) (E) (A1) (A2) (E)
                 (E) (A1) (E) (E) (E) (E) (A1) (A2) (E) (E) (A1)
                 (A1) (E) (E) (A1) (E) (E) (A2) (E) (E) (A1) (E)
                 (E) (A1) (E) (E) (E) (E) (A1) (E) (E) (A2) (E)
                 (E) (A1) (E) (E) (E) (E) (A2) (E) (E) (A2) (A1)
                 (E) (E) (A2) (A1) (E) (E) (E) (E) (A1) (E) (E)
                 (A1) (A1) (E) (E) (A1) (E) (E) (E) (E) (A1) (E)
                 (E) (A2) (A2) (E) (E) (A1) (E) (E) (A2) (A1) (E)
                 (E) (E) (E) (A1) (E) (E) (A1) (E) (E) (A1) (E)
                 (E) (E) (E) (E) (E) (A2) (A1) (E) (E) (A2) (E)
                 (E) (A1) (A1) (E) (E) (A2) (E) (E) (E) (E) (A1)
                 (A2) (E) (E) (A1) (E) (E) (E) (E) (A1) (A2) (E)
                 (E) (E) (E) (A2) (A1) (E) (E) (E) (E) (A1) (A2)
                 (A2) (E) (E) (E) (E) (A1) (E) (E) (E) (E) (A1)
                 (E) (E) (E) (E) (A2) (A1) (E) (E) (A1) (E) (E)
                 (A2) (A1) (E) (E) (E) (E) (A2) (E) (E) (E) (E)
                 (A1) (A1) (E) (E) (E) (E) (A2) (A1) (E) (E) (A1)
                 (A2) (E) (E) (E) (E) (A1) (E) (E) (A1) (E) (E)
                 (E) (E) (A1) (A2) (E) (E) (A2) (E) (E) (A1) (E)
                 (E) (A2) (A1) (E) (E) (E) (E) (A1) (A2) (E) (E)
                 (E) (E) (A1) (E) (E) (E) (E) (A2) (A1)
 Beta  Orbitals:
       Occupied  (A1) (E) (E) (A1) (A1) (E) (E) (A1) (E) (E) (A1)
                 (E) (E) (A2) (E) (E)
       Virtual   (A1) (A1) (E) (E) (A1) (E) (E) (E) (E) (A1) (A2)
                 (E) (E) (A1) (E) (E) (E) (E) (A2) (E) (E) (A1)
                 (A1) (E) (E) (A1) (E) (E) (A1) (A2) (E) (E) (A1)
                 (E) (E) (A1) (E) (E) (E) (E) (A1) (E) (E) (A2)
                 (E) (E) (A1) (E) (E) (E) (E) (A2) (E) (E) (A2)
                 (E) (E) (A1) (A2) (A1) (E) (E) (E) (E) (A1) (E)
                 (E) (A1) (A1) (E) (E) (A1) (E) (E) (E) (E) (A1)
                 (E) (E) (A2) (A2) (E) (E) (A1) (E) (E) (A2) (A1)
                 (E) (E) (E) (E) (A1) (E) (E) (A1) (E) (E) (A1)
                 (E) (E) (E) (E) (E) (E) (A2) (A1) (E) (E) (A2)
                 (E) (E) (A1) (A1) (E) (E) (A2) (E) (E) (E) (E)
                 (A1) (A2) (E) (E) (A1) (E) (E) (E) (E) (A2) (A1)
                 (E) (E) (E) (E) (A2) (A1) (E) (E) (E) (E) (A2)
                 (A1) (A2) (E) (E) (E) (E) (A1) (E) (E) (E) (E)
                 (A1) (E) (E) (A2) (E) (E) (A1) (E) (E) (A1) (A2)
                 (E) (E) (A1) (E) (E) (E) (E) (A2) (E) (E) (E)
                 (E) (A1) (A1) (E) (E) (E) (E) (A2) (A1) (E) (E)
                 (A1) (A2) (E) (E) (E) (E) (A1) (E) (E) (A1) (E)
                 (E) (E) (E) (A1) (A2) (E) (E) (A2) (E) (E) (A1)
                 (E) (E) (A2) (A1) (E) (E) (E) (E) (A1) (A2) (E)
                 (E) (E) (E) (A1) (E) (E) (E) (E) (A2) (A1)
 The electronic state is 2-A1.
 Alpha  occ. eigenvalues --  -10.17780 -10.16219 -10.16219 -10.16218  -0.80333
 Alpha  occ. eigenvalues --   -0.69180  -0.69180  -0.53842  -0.44653  -0.44199
 Alpha  occ. eigenvalues --   -0.44199  -0.38825  -0.38825  -0.36915  -0.34760
 Alpha  occ. eigenvalues --   -0.34760  -0.17588
 Alpha virt. eigenvalues --    0.00951   0.04879   0.04879   0.06839   0.07283
 Alpha virt. eigenvalues --    0.07283   0.10492   0.10492   0.10813   0.13436
 Alpha virt. eigenvalues --    0.14726   0.14726   0.15664   0.19131   0.19131
 Alpha virt. eigenvalues --    0.26212   0.26212   0.26724   0.28134   0.28304
 Alpha virt. eigenvalues --    0.28304   0.31309   0.34026   0.34502   0.34502
 Alpha virt. eigenvalues --    0.35322   0.35586   0.35586   0.37591   0.38886
 Alpha virt. eigenvalues --    0.38886   0.40612   0.45907   0.45907   0.50477
 Alpha virt. eigenvalues --    0.58308   0.58308   0.68709   0.68709   0.77806
 Alpha virt. eigenvalues --    0.79074   0.79074   0.84675   0.92044   0.92044
 Alpha virt. eigenvalues --    0.93122   0.95505   0.95505   0.97707   0.97707
 Alpha virt. eigenvalues --    0.99171   1.02185   1.02185   1.02794   1.05287
 Alpha virt. eigenvalues --    1.05613   1.05613   1.08280   1.09007   1.11762
 Alpha virt. eigenvalues --    1.11762   1.17004   1.17004   1.20669   1.22396
 Alpha virt. eigenvalues --    1.22396   1.25481   1.30838   1.33624   1.33624
 Alpha virt. eigenvalues --    1.37720   1.44471   1.44471   1.49528   1.49528
 Alpha virt. eigenvalues --    1.53020   1.55743   1.55743   1.60199   1.67153
 Alpha virt. eigenvalues --    1.68180   1.68180   1.71427   1.74485   1.74485
 Alpha virt. eigenvalues --    1.77051   1.84471   1.84597   1.84597   1.89578
 Alpha virt. eigenvalues --    1.89578   1.89946   2.01413   2.01413   2.04241
 Alpha virt. eigenvalues --    2.15046   2.15046   2.26610   2.30070   2.30070
 Alpha virt. eigenvalues --    2.53239   2.53239   2.57518   2.57518   2.58860
 Alpha virt. eigenvalues --    2.59342   2.92851   2.92851   3.12757   3.14230
 Alpha virt. eigenvalues --    3.14230   3.14722   3.15841   3.19115   3.19115
 Alpha virt. eigenvalues --    3.28971   3.29358   3.29358   3.37788   3.37788
 Alpha virt. eigenvalues --    3.37849   3.41377   3.45454   3.45454   3.54163
 Alpha virt. eigenvalues --    3.64345   3.64345   3.65961   3.65961   3.74140
 Alpha virt. eigenvalues --    3.75415   3.80111   3.80111   3.83268   3.83268
 Alpha virt. eigenvalues --    3.86623   3.87943   3.88347   3.88347   3.91706
 Alpha virt. eigenvalues --    3.91706   3.94700   3.95159   4.13006   4.14299
 Alpha virt. eigenvalues --    4.14299   4.17066   4.17066   4.19567   4.27158
 Alpha virt. eigenvalues --    4.27158   4.29534   4.29534   4.33611   4.36590
 Alpha virt. eigenvalues --    4.36590   4.44985   4.44985   4.45485   4.46523
 Alpha virt. eigenvalues --    4.49473   4.49473   4.55600   4.57430   4.57430
 Alpha virt. eigenvalues --    4.58126   4.59515   4.62931   4.62931   4.64725
 Alpha virt. eigenvalues --    4.64725   4.66740   4.69517   4.69517   4.72857
 Alpha virt. eigenvalues --    4.72857   4.73319   4.79685   4.80170   4.80170
 Alpha virt. eigenvalues --    4.82952   4.82952   4.86617   4.87323   4.98814
 Alpha virt. eigenvalues --    4.98814   5.00910   5.05489   5.07564   5.07564
 Alpha virt. eigenvalues --    5.14483   5.14483   5.19617   5.30876   5.30876
 Alpha virt. eigenvalues --    5.33051   5.35766   5.35766   5.44651   5.44651
 Alpha virt. eigenvalues --    5.55751   5.64467   5.67919   5.67919   5.69494
 Alpha virt. eigenvalues --    5.72350   5.72350   5.78395   5.78419   5.78419
 Alpha virt. eigenvalues --    5.83567   5.86513   5.89207   5.89207   5.90356
 Alpha virt. eigenvalues --    5.90356   5.92221   5.93737   5.96452   5.96452
 Alpha virt. eigenvalues --    5.97806   5.97806   6.14800   6.15661   6.15661
 Alpha virt. eigenvalues --    6.18380   6.18380   6.23885   6.97860
  Beta  occ. eigenvalues --  -10.16349 -10.16301 -10.16301 -10.16288  -0.78672
  Beta  occ. eigenvalues --   -0.68956  -0.68956  -0.51997  -0.43823  -0.43823
  Beta  occ. eigenvalues --   -0.42712  -0.38217  -0.38217  -0.36806  -0.34295
  Beta  occ. eigenvalues --   -0.34295
  Beta virt. eigenvalues --   -0.04080   0.01077   0.04925   0.04925   0.07224
  Beta virt. eigenvalues --    0.07337   0.07337   0.10619   0.10619   0.11210
  Beta virt. eigenvalues --    0.13429   0.14927   0.14927   0.16238   0.19217
  Beta virt. eigenvalues --    0.19217   0.26258   0.26258   0.28250   0.28692
  Beta virt. eigenvalues --    0.28692   0.28843   0.32487   0.34510   0.34510
  Beta virt. eigenvalues --    0.35529   0.35843   0.35843   0.36387   0.37593
  Beta virt. eigenvalues --    0.38989   0.38989   0.42134   0.46666   0.46666
  Beta virt. eigenvalues --    0.50836   0.58578   0.58578   0.69327   0.69327
  Beta virt. eigenvalues --    0.78374   0.79368   0.79368   0.84644   0.92440
  Beta virt. eigenvalues --    0.92440   0.93571   0.95766   0.95766   0.98493
  Beta virt. eigenvalues --    0.98493   0.99389   1.02683   1.02683   1.02990
  Beta virt. eigenvalues --    1.05871   1.05871   1.05949   1.08421   1.09822
  Beta virt. eigenvalues --    1.11989   1.11989   1.17684   1.17684   1.22491
  Beta virt. eigenvalues --    1.23010   1.23010   1.26465   1.33634   1.34103
  Beta virt. eigenvalues --    1.34103   1.40912   1.44852   1.44852   1.49809
  Beta virt. eigenvalues --    1.49809   1.54576   1.56190   1.56190   1.60240
  Beta virt. eigenvalues --    1.67234   1.68444   1.68444   1.72310   1.74826
  Beta virt. eigenvalues --    1.74826   1.77089   1.85099   1.85623   1.85623
  Beta virt. eigenvalues --    1.90513   1.90513   1.91478   2.02327   2.02327
  Beta virt. eigenvalues --    2.05370   2.15621   2.15621   2.27117   2.30444
  Beta virt. eigenvalues --    2.30444   2.53888   2.53888   2.57937   2.57937
  Beta virt. eigenvalues --    2.58987   2.60323   2.93710   2.93710   3.12809
  Beta virt. eigenvalues --    3.15217   3.15217   3.15731   3.17753   3.19514
  Beta virt. eigenvalues --    3.19514   3.29095   3.29506   3.29506   3.38215
  Beta virt. eigenvalues --    3.38215   3.38309   3.41591   3.45886   3.45886
  Beta virt. eigenvalues --    3.56816   3.65912   3.65912   3.66504   3.66504
  Beta virt. eigenvalues --    3.75595   3.75716   3.80418   3.80418   3.84159
  Beta virt. eigenvalues --    3.84159   3.87029   3.88663   3.88906   3.88906
  Beta virt. eigenvalues --    3.92788   3.92788   3.95298   3.97153   4.13342
  Beta virt. eigenvalues --    4.14904   4.14904   4.18288   4.18288   4.20108
  Beta virt. eigenvalues --    4.28000   4.28000   4.30315   4.30315   4.34919
  Beta virt. eigenvalues --    4.37489   4.37489   4.45898   4.46140   4.46140
  Beta virt. eigenvalues --    4.47324   4.49989   4.49989   4.55927   4.58128
  Beta virt. eigenvalues --    4.58258   4.58258   4.61539   4.63498   4.63498
  Beta virt. eigenvalues --    4.65677   4.65677   4.67338   4.70314   4.70314
  Beta virt. eigenvalues --    4.73361   4.73361   4.73981   4.80871   4.81282
  Beta virt. eigenvalues --    4.81282   4.83862   4.83862   4.87169   4.88651
  Beta virt. eigenvalues --    5.00338   5.00338   5.01411   5.05774   5.08155
  Beta virt. eigenvalues --    5.08155   5.15083   5.15083   5.20391   5.31356
  Beta virt. eigenvalues --    5.31356   5.33944   5.36733   5.36733   5.44955
  Beta virt. eigenvalues --    5.44955   5.56219   5.64845   5.68291   5.68291
  Beta virt. eigenvalues --    5.69600   5.72559   5.72559   5.78908   5.78967
  Beta virt. eigenvalues --    5.78967   5.83709   5.87248   5.89595   5.89595
  Beta virt. eigenvalues --    5.90613   5.90613   5.92425   5.93768   5.96721
  Beta virt. eigenvalues --    5.96721   5.98193   5.98193   6.15084   6.16015
  Beta virt. eigenvalues --    6.16015   6.18684   6.18684   6.24181   6.98667
          Condensed to atoms (all electrons):
               1          2          3          4          5          6
     1  C    5.480780   0.329432   0.329432   0.329432  -0.054634  -0.054634
     2  C    0.329432   4.601398  -0.060746  -0.060746   0.404961  -0.005080
     3  C    0.329432  -0.060746   4.601398  -0.060746  -0.005080   0.404961
     4  C    0.329432  -0.060746  -0.060746   4.601398  -0.005080  -0.005080
     5  H   -0.054634   0.404961  -0.005080  -0.005080   0.707956   0.012138
     6  H   -0.054634  -0.005080   0.404961  -0.005080   0.012138   0.707956
     7  H   -0.054634  -0.005080  -0.005080   0.404961   0.012138   0.012138
     8  H   -0.047404   0.428895   0.011397  -0.008139  -0.040893  -0.001684
     9  H   -0.047404   0.428895  -0.008139   0.011397  -0.040893  -0.003563
    10  H   -0.047404  -0.008139   0.428895   0.011397  -0.003563  -0.040893
    11  H   -0.047404   0.011397   0.428895  -0.008139  -0.001684  -0.040893
    12  H   -0.047404   0.011397  -0.008139   0.428895  -0.001684  -0.003563
    13  H   -0.047404  -0.008139   0.011397   0.428895  -0.003563  -0.001684
               7          8          9         10         11         12
     1  C   -0.054634  -0.047404  -0.047404  -0.047404  -0.047404  -0.047404
     2  C   -0.005080   0.428895   0.428895  -0.008139   0.011397   0.011397
     3  C   -0.005080   0.011397  -0.008139   0.428895   0.428895  -0.008139
     4  C    0.404961  -0.008139   0.011397   0.011397  -0.008139   0.428895
     5  H    0.012138  -0.040893  -0.040893  -0.003563  -0.001684  -0.001684
     6  H    0.012138  -0.001684  -0.003563  -0.040893  -0.040893  -0.003563
     7  H    0.707956  -0.003563  -0.001684  -0.001684  -0.003563  -0.040893
     8  H   -0.003563   0.646361  -0.020149   0.000875   0.000014   0.000875
     9  H   -0.001684  -0.020149   0.646361   0.005675   0.000875   0.000014
    10  H   -0.001684   0.000875   0.005675   0.646361  -0.020149   0.000875
    11  H   -0.003563   0.000014   0.000875  -0.020149   0.646361   0.005675
    12  H   -0.040893   0.000875   0.000014   0.000875   0.005675   0.646361
    13  H   -0.040893   0.005675   0.000875   0.000014   0.000875  -0.020149
              13
     1  C   -0.047404
     2  C   -0.008139
     3  C    0.011397
     4  C    0.428895
     5  H   -0.003563
     6  H   -0.001684
     7  H   -0.040893
     8  H    0.005675
     9  H    0.000875
    10  H    0.000014
    11  H    0.000875
    12  H   -0.020149
    13  H    0.646361
          Atomic-Atomic Spin Densities.
               1          2          3          4          5          6
     1  C    1.241056  -0.038426  -0.038426  -0.038426  -0.040135  -0.040135
     2  C   -0.038426  -0.050938   0.005273   0.005273  -0.005000  -0.002833
     3  C   -0.038426   0.005273  -0.050938   0.005273  -0.002833  -0.005000
     4  C   -0.038426   0.005273   0.005273  -0.050938  -0.002833  -0.002833
     5  H   -0.040135  -0.005000  -0.002833  -0.002833   0.147841   0.014070
     6  H   -0.040135  -0.002833  -0.005000  -0.002833   0.014070   0.147841
     7  H   -0.040135  -0.002833  -0.002833  -0.005000   0.014070   0.014070
     8  H   -0.016822   0.009957   0.001161   0.003341  -0.021176  -0.001688
     9  H   -0.016822   0.009957   0.003341   0.001161  -0.021176  -0.004252
    10  H   -0.016822   0.003341   0.009957   0.001161  -0.004252  -0.021176
    11  H   -0.016822   0.001161   0.009957   0.003341  -0.001688  -0.021176
    12  H   -0.016822   0.001161   0.003341   0.009957  -0.001688  -0.004252
    13  H   -0.016822   0.003341   0.001161   0.009957  -0.004252  -0.001688
               7          8          9         10         11         12
     1  C   -0.040135  -0.016822  -0.016822  -0.016822  -0.016822  -0.016822
     2  C   -0.002833   0.009957   0.009957   0.003341   0.001161   0.001161
     3  C   -0.002833   0.001161   0.003341   0.009957   0.009957   0.003341
     4  C   -0.005000   0.003341   0.001161   0.001161   0.003341   0.009957
     5  H    0.014070  -0.021176  -0.021176  -0.004252  -0.001688  -0.001688
     6  H    0.014070  -0.001688  -0.004252  -0.021176  -0.021176  -0.004252
     7  H    0.147841  -0.004252  -0.001688  -0.001688  -0.004252  -0.021176
     8  H   -0.004252   0.025873   0.008274   0.000958   0.000450   0.000958
     9  H   -0.001688   0.008274   0.025873   0.003700   0.000958   0.000450
    10  H   -0.001688   0.000958   0.003700   0.025873   0.008274   0.000958
    11  H   -0.004252   0.000450   0.000958   0.008274   0.025873   0.003700
    12  H   -0.021176   0.000958   0.000450   0.000958   0.003700   0.025873
    13  H   -0.021176   0.003700   0.000958   0.000450   0.000958   0.008274
              13
     1  C   -0.016822
     2  C    0.003341
     3  C    0.001161
     4  C    0.009957
     5  H   -0.004252
     6  H   -0.001688
     7  H   -0.021176
     8  H    0.003700
     9  H    0.000958
    10  H    0.000450
    11  H    0.000958
    12  H    0.008274
    13  H    0.025873
 Mulliken charges and spin densities:
               1          2
     1  C   -0.020752   0.904442
     2  C   -0.068445  -0.060567
     3  C   -0.068445  -0.060567
     4  C   -0.068445  -0.060567
     5  H    0.019882   0.070950
     6  H    0.019882   0.070950
     7  H    0.019882   0.070950
     8  H    0.027740   0.010735
     9  H    0.027740   0.010735
    10  H    0.027740   0.010735
    11  H    0.027740   0.010735
    12  H    0.027740   0.010735
    13  H    0.027740   0.010735
 Sum of Mulliken charges =  -0.00000   1.00000
 Mulliken charges and spin densities with hydrogens summed into heavy atoms:
               1          2
     1  C   -0.020752   0.904442
     2  C    0.006917   0.031853
     3  C    0.006917   0.031853
     4  C    0.006917   0.031853
 Electronic spatial extent (au):  <R**2>=            353.7565
 Charge=             -0.0000 electrons
 Dipole moment (field-independent basis, Debye):
    X=             -0.0000    Y=             -0.0000    Z=             -0.1971  Tot=              0.1971
 Quadrupole moment (field-independent basis, Debye-Ang):
   XX=            -27.8885   YY=            -27.8885   ZZ=            -28.6737
   XY=             -0.0000   XZ=             -0.0000   YZ=             -0.0000
 Traceless Quadrupole moment (field-independent basis, Debye-Ang):
   XX=              0.2617   YY=              0.2617   ZZ=             -0.5234
   XY=             -0.0000   XZ=             -0.0000   YZ=             -0.0000
 Octapole moment (field-independent basis, Debye-Ang**2):
  XXX=              0.0000  YYY=             -1.5444  ZZZ=             -1.7499  XYY=              0.0000
  XXY=              1.5444  XXZ=              1.4183  XZZ=              0.0000  YZZ=              0.0000
  YYZ=              1.4183  XYZ=             -0.0000
 Hexadecapole moment (field-independent basis, Debye-Ang**3):
 XXXX=           -228.3499 YYYY=           -228.3499 ZZZZ=            -56.7925 XXXY=              0.0000
 XXXZ=             -0.0000 YYYX=              0.0000 YYYZ=             -1.5862 ZZZX=              0.0000
 ZZZY=             -0.0000 XXYY=            -76.1166 XXZZ=            -47.2082 YYZZ=            -47.2082
 XXYZ=              1.5862 YYXZ=             -0.0000 ZZXY=              0.0000
 N-N= 1.251931005736D+02 E-N=-6.153943240328D+02  KE= 1.570757864183D+02
 Symmetry A'   KE= 1.136413321970D+02
 Symmetry A"   KE= 4.343445422135D+01
 Symmetry A'   SP= 1.000000000000D+00
 Symmetry A"   SP= 3.150109389850D-15
                          Isotropic Fermi Contact Couplings
        Atom                 a.u.       MegaHertz       Gauss      10(-4) cm-1
     1  C(13)              0.15639     175.81457      62.73501      58.64543
     2  C(13)             -0.02814     -31.63835     -11.28935     -10.55342
     3  C(13)             -0.02814     -31.63835     -11.28935     -10.55342
     4  C(13)             -0.02814     -31.63835     -11.28935     -10.55342
     5  H(1)               0.02866     128.09005      45.70572      42.72624
     6  H(1)               0.02866     128.09005      45.70572      42.72624
     7  H(1)               0.02866     128.09005      45.70572      42.72624
     8  H(1)               0.00651      29.09168      10.38064       9.70394
     9  H(1)               0.00651      29.09168      10.38064       9.70394
    10  H(1)               0.00651      29.09168      10.38064       9.70394
    11  H(1)               0.00651      29.09168      10.38064       9.70394
    12  H(1)               0.00651      29.09168      10.38064       9.70394
    13  H(1)               0.00651      29.09168      10.38064       9.70394
 --------------------------------------------------------
       Center         ----  Spin Dipole Couplings  ----
                      3XX-RR        3YY-RR        3ZZ-RR
 --------------------------------------------------------
     1   Atom       -0.577472     -0.577472      1.154943
     2   Atom       -0.011991      0.019078     -0.007087
     3   Atom        0.011311     -0.004224     -0.007087
     4   Atom        0.011311     -0.004224     -0.007087
     5   Atom       -0.008130      0.008991     -0.000861
     6   Atom        0.004711     -0.003850     -0.000861
     7   Atom        0.004711     -0.003850     -0.000861
     8   Atom       -0.004907      0.012876     -0.007968
     9   Atom       -0.004907      0.012876     -0.007968
    10   Atom        0.016519     -0.008551     -0.007968
    11   Atom        0.000341      0.007628     -0.007968
    12   Atom        0.000341      0.007628     -0.007968
    13   Atom        0.016519     -0.008551     -0.007968
 --------------------------------------------------------
                        XY            XZ            YZ
 --------------------------------------------------------
     1   Atom        0.000000      0.000000     -0.000000
     2   Atom       -0.000000      0.000000     -0.007946
     3   Atom       -0.013453     -0.006882      0.003973
     4   Atom        0.013453      0.006882      0.003973
     5   Atom       -0.000000     -0.000000     -0.008655
     6   Atom       -0.007413     -0.007495      0.004327
     7   Atom        0.007413      0.007495      0.004327
     8   Atom       -0.009341      0.000323      0.001214
     9   Atom        0.009341     -0.000323      0.001214
    10   Atom       -0.003030      0.000890     -0.000887
    11   Atom       -0.012370      0.001213     -0.000328
    12   Atom        0.012370     -0.001213     -0.000328
    13   Atom        0.003030     -0.000890     -0.000887
 --------------------------------------------------------


 ---------------------------------------------------------------------------------
              Anisotropic Spin Dipole Couplings in Principal Axis System
 ---------------------------------------------------------------------------------

       Atom             a.u.   MegaHertz   Gauss  10(-4) cm-1        Axes

              Baa    -0.5775   -77.491   -27.651   -25.848  0.0001  1.0000  0.0000
     1 C(13)  Bbb    -0.5775   -77.491   -27.651   -25.848  1.0000 -0.0001 -0.0000
              Bcc     1.1549   154.982    55.302    51.697  0.0000 -0.0000  1.0000
 
              Baa    -0.0120    -1.609    -0.574    -0.537  1.0000 -0.0000 -0.0000
     2 C(13)  Bbb    -0.0093    -1.250    -0.446    -0.417  0.0000  0.2695  0.9630
              Bcc     0.0213     2.859     1.020     0.954 -0.0000  0.9630 -0.2695
 
              Baa    -0.0120    -1.609    -0.574    -0.537  0.5000  0.8660  0.0000
     3 C(13)  Bbb    -0.0093    -1.250    -0.446    -0.417  0.2334 -0.1348  0.9630
              Bcc     0.0213     2.859     1.020     0.954  0.8340 -0.4815 -0.2695
 
              Baa    -0.0120    -1.609    -0.574    -0.537 -0.5000  0.8660 -0.0000
     4 C(13)  Bbb    -0.0093    -1.250    -0.446    -0.417 -0.2334 -0.1348  0.9630
              Bcc     0.0213     2.859     1.020     0.954  0.8340  0.4815  0.2695
 
              Baa    -0.0081    -4.338    -1.548    -1.447  1.0000  0.0000  0.0000
     5 H(1)   Bbb    -0.0059    -3.145    -1.122    -1.049 -0.0000  0.5027  0.8645
              Bcc     0.0140     7.482     2.670     2.496 -0.0000  0.8645 -0.5027
 
              Baa    -0.0081    -4.338    -1.548    -1.447  0.5000  0.8660 -0.0000
     6 H(1)   Bbb    -0.0059    -3.145    -1.122    -1.049  0.4353 -0.2513  0.8645
              Bcc     0.0140     7.482     2.670     2.496  0.7487 -0.4322 -0.5027
 
              Baa    -0.0081    -4.338    -1.548    -1.447 -0.5000  0.8660 -0.0000
     7 H(1)   Bbb    -0.0059    -3.145    -1.122    -1.049 -0.4353 -0.2513  0.8645
              Bcc     0.0140     7.482     2.670     2.496  0.7487  0.4322  0.5027
 
              Baa    -0.0094    -4.992    -1.781    -1.665  0.7897  0.3589 -0.4976
     8 H(1)   Bbb    -0.0076    -4.035    -1.440    -1.346  0.4715  0.1640  0.8665
              Bcc     0.0169     9.027     3.221     3.011 -0.3926  0.9188  0.0397
 
              Baa    -0.0094    -4.992    -1.781    -1.665  0.7897 -0.3589  0.4976
     9 H(1)   Bbb    -0.0076    -4.035    -1.440    -1.346 -0.4715  0.1640  0.8665
              Bcc     0.0169     9.027     3.221     3.011  0.3926  0.9188  0.0397
 
              Baa    -0.0094    -4.992    -1.781    -1.665  0.0840  0.8633  0.4976
    10 H(1)   Bbb    -0.0076    -4.035    -1.440    -1.346 -0.0937 -0.4903  0.8665
              Bcc     0.0169     9.027     3.221     3.011  0.9921 -0.1194  0.0397
 
              Baa    -0.0094    -4.992    -1.781    -1.665  0.7057  0.5044 -0.4976
    11 H(1)   Bbb    -0.0076    -4.035    -1.440    -1.346  0.3778  0.3263  0.8665
              Bcc     0.0169     9.027     3.221     3.011 -0.5994  0.7994 -0.0397
 
              Baa    -0.0094    -4.992    -1.781    -1.665  0.7057 -0.5044  0.4976
    12 H(1)   Bbb    -0.0076    -4.035    -1.440    -1.346 -0.3778  0.3263  0.8665
              Bcc     0.0169     9.027     3.221     3.011  0.5994  0.7994 -0.0397
 
              Baa    -0.0094    -4.992    -1.781    -1.665 -0.0840  0.8633  0.4976
    13 H(1)   Bbb    -0.0076    -4.035    -1.440    -1.346  0.0937 -0.4903  0.8665
              Bcc     0.0169     9.027     3.221     3.011  0.9921  0.1194 -0.0397
 

 ---------------------------------------------------------------------------------

 Calling FoFJK, ICntrl=      2127 FMM=F ISym2X=1 I1Cent= 0 IOpClX= 1 NMat=1 NMatS=1 NMatT=0.
 ***** Axes restored to original set *****
 -------------------------------------------------------------------
 Center     Atomic                   Forces (Hartrees/Bohr)
 Number     Number              X              Y              Z
 -------------------------------------------------------------------
      1        6          -0.000000000    0.000000000   -0.001125674
      2        6           0.000000000    0.000873251    0.000395587
      3        6           0.000756257   -0.000436625    0.000395587
      4        6          -0.000756257   -0.000436625    0.000395587
      5        1           0.000000000   -0.000833270    0.001415418
      6        1          -0.000721633    0.000416635    0.001415418
      7        1           0.000721633    0.000416635    0.001415418
      8        1           0.001215681   -0.001216040   -0.000717890
      9        1          -0.001215681   -0.001216040   -0.000717890
     10        1          -0.001660962   -0.000444791   -0.000717890
     11        1          -0.000445281    0.001660831   -0.000717890
     12        1           0.000445281    0.001660831   -0.000717890
     13        1           0.001660962   -0.000444791   -0.000717890
 -------------------------------------------------------------------
 Cartesian Forces:  Max     0.001660962 RMS     0.000919163

 GradGradGradGradGradGradGradGradGradGradGradGradGradGradGradGradGradGrad
 Berny optimization.
 FormGI is forming the generalized inverse of G from B-inverse, IUseBI=4.
 Internal  Forces:  Max     0.002419094 RMS     0.000974200
 Search for a local minimum.
 Step number   1 out of a maximum of   61
 All quantities printed in internal units (Hartrees-Bohrs-Radians)
 Mixed Optimization -- En-DIIS/RFO-DIIS
 Second derivative matrix not updated -- first step.
 ITU=  0
     Eigenvalues ---    0.00835   0.00835   0.00835   0.01046   0.07038
     Eigenvalues ---    0.07038   0.07038   0.07127   0.07127   0.07127
     Eigenvalues ---    0.16000   0.16000   0.16000   0.16000   0.16000
     Eigenvalues ---    0.16000   0.16000   0.16000   0.16000   0.23341
     Eigenvalues ---    0.23341   0.32930   0.32930   0.32930   0.33120
     Eigenvalues ---    0.33120   0.33120   0.34256   0.34256   0.34256
     Eigenvalues ---    0.34256   0.34256   0.34256
 RFO step:  Lambda=-1.59021294D-04 EMin= 8.34831871D-03
 Linear search not attempted -- first point.
 Iteration  1 RMS(Cart)=  0.00633346 RMS(Int)=  0.00000640
 Iteration  2 RMS(Cart)=  0.00000582 RMS(Int)=  0.00000251
 Iteration  3 RMS(Cart)=  0.00000000 RMS(Int)=  0.00000251
 ClnCor:  largest displacement from symmetrization is 1.07D-12 for atom    12.
 Variable       Old X    -DE/DX   Delta X   Delta X   Delta X     New X
                                 (Linear)    (Quad)   (Total)
    R1        2.82475  -0.00242   0.00000  -0.00734  -0.00734   2.81741
    R2        2.82475  -0.00242   0.00000  -0.00734  -0.00734   2.81741
    R3        2.82475  -0.00242   0.00000  -0.00734  -0.00734   2.81741
    R4        2.08841  -0.00159   0.00000  -0.00479  -0.00479   2.08362
    R5        2.06901  -0.00179   0.00000  -0.00523  -0.00523   2.06378
    R6        2.06901  -0.00179   0.00000  -0.00523  -0.00523   2.06378
    R7        2.08841  -0.00159   0.00000  -0.00479  -0.00479   2.08362
    R8        2.06901  -0.00179   0.00000  -0.00523  -0.00523   2.06378
    R9        2.06901  -0.00179   0.00000  -0.00523  -0.00523   2.06378
   R10        2.08841  -0.00159   0.00000  -0.00479  -0.00479   2.08362
   R11        2.06901  -0.00179   0.00000  -0.00523  -0.00523   2.06378
   R12        2.06901  -0.00179   0.00000  -0.00523  -0.00523   2.06378
    A1        2.07273   0.00000   0.00000   0.00047   0.00046   2.07319
    A2        2.07273   0.00000   0.00000   0.00047   0.00046   2.07319
    A3        2.07273   0.00000   0.00000   0.00047   0.00046   2.07319
    A4        1.95525  -0.00043   0.00000  -0.00303  -0.00303   1.95222
    A5        1.95410  -0.00046   0.00000  -0.00266  -0.00267   1.95144
    A6        1.95410  -0.00046   0.00000  -0.00266  -0.00267   1.95144
    A7        1.85506   0.00042   0.00000   0.00230   0.00230   1.85736
    A8        1.85506   0.00042   0.00000   0.00230   0.00230   1.85736
    A9        1.88420   0.00061   0.00000   0.00446   0.00446   1.88867
   A10        1.95525  -0.00043   0.00000  -0.00303  -0.00303   1.95222
   A11        1.95410  -0.00046   0.00000  -0.00266  -0.00267   1.95144
   A12        1.95410  -0.00046   0.00000  -0.00266  -0.00267   1.95144
   A13        1.85506   0.00042   0.00000   0.00230   0.00230   1.85736
   A14        1.85506   0.00042   0.00000   0.00230   0.00230   1.85736
   A15        1.88420   0.00061   0.00000   0.00446   0.00446   1.88867
   A16        1.95525  -0.00043   0.00000  -0.00303  -0.00303   1.95222
   A17        1.95410  -0.00046   0.00000  -0.00266  -0.00267   1.95144
   A18        1.95410  -0.00046   0.00000  -0.00266  -0.00267   1.95144
   A19        1.85506   0.00042   0.00000   0.00230   0.00230   1.85736
   A20        1.85506   0.00042   0.00000   0.00230   0.00230   1.85736
   A21        1.88420   0.00061   0.00000   0.00446   0.00446   1.88867
    D1        1.37887   0.00002   0.00000   0.00203   0.00203   1.38090
    D2       -2.82216  -0.00005   0.00000   0.00105   0.00105  -2.82111
    D3       -0.70328   0.00009   0.00000   0.00301   0.00300  -0.70028
    D4       -1.37887  -0.00002   0.00000  -0.00203  -0.00203  -1.38090
    D5        0.70328  -0.00009   0.00000  -0.00301  -0.00300   0.70028
    D6        2.82216   0.00005   0.00000  -0.00105  -0.00105   2.82111
    D7       -1.37887  -0.00002   0.00000  -0.00203  -0.00203  -1.38090
    D8        0.70328  -0.00009   0.00000  -0.00301  -0.00300   0.70028
    D9        2.82216   0.00005   0.00000  -0.00105  -0.00105   2.82111
   D10        1.37887   0.00002   0.00000   0.00203   0.00203   1.38090
   D11       -2.82216  -0.00005   0.00000   0.00105   0.00105  -2.82111
   D12       -0.70328   0.00009   0.00000   0.00301   0.00300  -0.70028
   D13        1.37887   0.00002   0.00000   0.00203   0.00203   1.38090
   D14       -2.82216  -0.00005   0.00000   0.00105   0.00105  -2.82111
   D15       -0.70328   0.00009   0.00000   0.00301   0.00300  -0.70028
   D16       -1.37887  -0.00002   0.00000  -0.00203  -0.00203  -1.38090
   D17        0.70328  -0.00009   0.00000  -0.00301  -0.00300   0.70028
   D18        2.82216   0.00005   0.00000  -0.00105  -0.00105   2.82111
         Item               Value     Threshold  Converged?
 Maximum Force            0.002419     0.000450     NO 
 RMS     Force            0.000974     0.000300     NO 
 Maximum Displacement     0.015298     0.001800     NO 
 RMS     Displacement     0.006334     0.001200     NO 
 Predicted change in Energy=-7.956015D-05
 GradGradGradGradGradGradGradGradGradGradGradGradGradGradGradGradGradGrad

                          Input orientation:                          
 ---------------------------------------------------------------------
 Center     Atomic      Atomic             Coordinates (Angstroms)
 Number     Number       Type             X           Y           Z
 ---------------------------------------------------------------------
      1          6           0        0.000000   -0.000000    0.150317
      2          6           0        0.000000    1.481698   -0.015133
      3          6           0        1.283188   -0.740849   -0.015133
      4          6           0       -1.283188   -0.740849   -0.015133
      5          1           0        0.000000    1.776033   -1.077728
      6          1           0        1.538090   -0.888017   -1.077728
      7          1           0       -1.538090   -0.888017   -1.077728
      8          1           0       -0.884723    1.939895    0.432103
      9          1           0        0.884723    1.939895    0.432103
     10          1           0        2.122359   -0.203755    0.432103
     11          1           0        1.237637   -1.736140    0.432103
     12          1           0       -1.237637   -1.736140    0.432103
     13          1           0       -2.122359   -0.203755    0.432103
 ---------------------------------------------------------------------
                    Distance matrix (angstroms):
                    1          2          3          4          5
     1  C    0.000000
     2  C    1.490907   0.000000
     3  C    1.490907   2.566377   0.000000
     4  C    1.490907   2.566377   2.566377   0.000000
     5  H    2.159257   1.102606   3.018340   3.018340   0.000000
     6  H    2.159257   3.018340   1.102606   3.018340   3.076180
     7  H    2.159257   3.018340   3.018340   1.102606   3.076180
     8  H    2.150658   1.092107   3.476528   2.746849   1.757605
     9  H    2.150658   1.092107   2.746849   3.476528   1.757605
    10  H    2.150658   2.746849   1.092107   3.476528   3.271629
    11  H    2.150658   3.476528   1.092107   2.746849   4.018295
    12  H    2.150658   3.476528   2.746849   1.092107   4.018295
    13  H    2.150658   2.746849   3.476528   1.092107   3.271629
                    6          7          8          9         10
     6  H    0.000000
     7  H    3.076180   0.000000
     8  H    4.018295   3.271629   0.000000
     9  H    3.271629   4.018295   1.769446   0.000000
    10  H    1.757605   4.018295   3.692936   2.475273   0.000000
    11  H    1.757605   3.271629   4.244719   3.692936   1.769446
    12  H    3.271629   1.757605   3.692936   4.244719   3.692936
    13  H    4.018295   1.757605   2.475273   3.692936   4.244719
                   11         12         13
    11  H    0.000000
    12  H    2.475273   0.000000
    13  H    3.692936   1.769446   0.000000
 Stoichiometry    C4H9(2)
 Framework group  C3V[C3(C),3SGV(CH),X(H6)]
 Deg. of freedom     7
 Full point group                 C3V     NOp   6
 Largest Abelian subgroup         CS      NOp   2
 Largest concise Abelian subgroup CS      NOp   2
                         Standard orientation:                         
 ---------------------------------------------------------------------
 Center     Atomic      Atomic             Coordinates (Angstroms)
 Number     Number       Type             X           Y           Z
 ---------------------------------------------------------------------
      1          6           0        0.000000    0.000000    0.150652
      2          6           0        0.000000    1.481698   -0.014798
      3          6           0        1.283188   -0.740849   -0.014798
      4          6           0       -1.283188   -0.740849   -0.014798
      5          1           0        0.000000    1.776033   -1.077393
      6          1           0        1.538090   -0.888017   -1.077393
      7          1           0       -1.538090   -0.888017   -1.077393
      8          1           0       -0.884723    1.939895    0.432438
      9          1           0        0.884723    1.939895    0.432438
     10          1           0        2.122359   -0.203755    0.432438
     11          1           0        1.237637   -1.736140    0.432438
     12          1           0       -1.237637   -1.736140    0.432438
     13          1           0       -2.122359   -0.203755    0.432438
 ---------------------------------------------------------------------
 Rotational constants (GHZ):           8.0289887           8.0289887           4.3544111
 Basis read from rwf:  (5D, 7F)
 There are   154 symmetry adapted cartesian basis functions of A'  symmetry.
 There are   121 symmetry adapted cartesian basis functions of A"  symmetry.
 There are   136 symmetry adapted basis functions of A'  symmetry.
 There are   110 symmetry adapted basis functions of A"  symmetry.
   246 basis functions,   366 primitive gaussians,   275 cartesian basis functions
    17 alpha electrons       16 beta electrons
       nuclear repulsion energy       125.5361776848 Hartrees.
 NAtoms=   13 NActive=   13 NUniq=    4 SFac= 4.00D+00 NAtFMM=   60 NAOKFM=F Big=F
 Integral buffers will be    131072 words long.
 Raffenetti 2 integral format.
 Two-electron integral symmetry is turned on.
 One-electron integrals computed using PRISM.
 NBasis=   246 RedAO= T EigKep=  4.42D-04  NBF=   136   110
 NBsUse=   246 1.00D-06 EigRej= -1.00D+00 NBFU=   136   110
 Initial guess from the checkpoint file:  "/wrk/irikura/Gau-19468.chk"
 B after Tr=     0.000000   -0.000000   -0.000000
         Rot=    1.000000    0.000000    0.000000   -0.000000 Ang=   0.00 deg.
 Initial guess orbital symmetries:
 Alpha Orbitals:
       Occupied  (A1) (E) (E) (A1) (A1) (E) (E) (A1) (A1) (E) (E)
                 (E) (E) (A2) (E) (E) (A1)
       Virtual   (A1) (E) (E) (A1) (E) (E) (E) (E) (A1) (A2) (E)
                 (E) (A1) (E) (E) (E) (E) (A1) (A2) (E) (E) (A1)
                 (A1) (E) (E) (A1) (E) (E) (A2) (E) (E) (A1) (E)
                 (E) (A1) (E) (E) (E) (E) (A1) (E) (E) (A2) (E)
                 (E) (A1) (E) (E) (E) (E) (A2) (E) (E) (A2) (A1)
                 (E) (E) (A2) (A1) (E) (E) (E) (E) (A1) (E) (E)
                 (A1) (A1) (E) (E) (A1) (E) (E) (E) (E) (A1) (E)
                 (E) (A2) (A2) (E) (E) (A1) (E) (E) (A2) (A1) (E)
                 (E) (E) (E) (A1) (E) (E) (A1) (E) (E) (A1) (E)
                 (E) (E) (E) (E) (E) (A2) (A1) (E) (E) (A2) (E)
                 (E) (A1) (A1) (E) (E) (A2) (E) (E) (E) (E) (A1)
                 (A2) (E) (E) (A1) (E) (E) (E) (E) (A1) (A2) (E)
                 (E) (E) (E) (A2) (A1) (E) (E) (E) (E) (A1) (A2)
                 (A2) (E) (E) (E) (E) (A1) (E) (E) (E) (E) (A1)
                 (E) (E) (E) (E) (A2) (A1) (E) (E) (A1) (E) (E)
                 (A2) (A1) (E) (E) (E) (E) (A2) (E) (E) (E) (E)
                 (A1) (A1) (E) (E) (E) (E) (A2) (A1) (E) (E) (A1)
                 (A2) (E) (E) (E) (E) (A1) (E) (E) (A1) (E) (E)
                 (E) (E) (A1) (A2) (E) (E) (A2) (E) (E) (A1) (E)
                 (E) (A2) (A1) (E) (E) (E) (E) (A1) (A2) (E) (E)
                 (E) (E) (A1) (E) (E) (E) (E) (A2) (A1)
 Beta  Orbitals:
       Occupied  (A1) (E) (E) (A1) (A1) (E) (E) (A1) (E) (E) (A1)
                 (E) (E) (A2) (E) (E)
       Virtual   (A1) (A1) (E) (E) (A1) (E) (E) (E) (E) (A1) (A2)
                 (E) (E) (A1) (E) (E) (E) (E) (A2) (E) (E) (A1)
                 (A1) (E) (E) (A1) (E) (E) (A1) (A2) (E) (E) (A1)
                 (E) (E) (A1) (E) (E) (E) (E) (A1) (E) (E) (A2)
                 (E) (E) (A1) (E) (E) (E) (E) (A2) (E) (E) (A2)
                 (E) (E) (A1) (A2) (A1) (E) (E) (E) (E) (A1) (E)
                 (E) (A1) (A1) (E) (E) (A1) (E) (E) (E) (E) (A1)
                 (E) (E) (A2) (A2) (E) (E) (A1) (E) (E) (A2) (A1)
                 (E) (E) (E) (E) (A1) (E) (E) (A1) (E) (E) (A1)
                 (E) (E) (E) (E) (E) (E) (A2) (A1) (E) (E) (A2)
                 (E) (E) (A1) (A1) (E) (E) (A2) (E) (E) (E) (E)
                 (A1) (A2) (E) (E) (A1) (E) (E) (E) (E) (A2) (A1)
                 (E) (E) (E) (E) (A2) (A1) (E) (E) (E) (E) (A2)
                 (A1) (A2) (E) (E) (E) (E) (A1) (E) (E) (E) (E)
                 (A1) (E) (E) (A2) (E) (E) (A1) (E) (E) (A1) (A2)
                 (E) (E) (A1) (E) (E) (E) (E) (A2) (E) (E) (E)
                 (E) (A1) (A1) (E) (E) (E) (E) (A2) (A1) (E) (E)
                 (A1) (A2) (E) (E) (E) (E) (A1) (E) (E) (A1) (E)
                 (E) (E) (E) (A1) (A2) (E) (E) (A2) (E) (E) (A1)
                 (E) (E) (A2) (A1) (E) (E) (E) (E) (A1) (A2) (E)
                 (E) (E) (E) (A1) (E) (E) (E) (E) (A2) (A1)
 Initial guess <Sx>= 0.0000 <Sy>= 0.0000 <Sz>= 0.5000 <S**2>= 0.7542 S= 0.5021
 Keep R1 and R2 ints in memory in symmetry-blocked form, NReq=692524364.
 Requested convergence on RMS density matrix=1.00D-08 within 128 cycles.
 Requested convergence on MAX density matrix=1.00D-06.
 Requested convergence on             energy=1.00D-06.
 No special actions if energy rises.
 SCF Done:  E(UB3LYP) =  -157.864658490     A.U. after    8 cycles
            NFock=  8  Conv=0.48D-08     -V/T= 2.0047
 <Sx>= 0.0000 <Sy>= 0.0000 <Sz>= 0.5000 <S**2>= 0.7542 S= 0.5021
 <L.S>=  0.00000000000    
 Annihilation of the first spin contaminant:
 S**2 before annihilation     0.7542,   after     0.7500
 Calling FoFJK, ICntrl=      2127 FMM=F ISym2X=1 I1Cent= 0 IOpClX= 1 NMat=1 NMatS=1 NMatT=0.
 ***** Axes restored to original set *****
 -------------------------------------------------------------------
 Center     Atomic                   Forces (Hartrees/Bohr)
 Number     Number              X              Y              Z
 -------------------------------------------------------------------
      1        6          -0.000000000   -0.000000000   -0.000069500
      2        6           0.000000000    0.000381615    0.000193898
      3        6           0.000330488   -0.000190807    0.000193898
      4        6          -0.000330488   -0.000190807    0.000193898
      5        1           0.000000000    0.000010277   -0.000034741
      6        1           0.000008901   -0.000005139   -0.000034741
      7        1          -0.000008901   -0.000005139   -0.000034741
      8        1           0.000012182   -0.000033674   -0.000067996
      9        1          -0.000012182   -0.000033674   -0.000067996
     10        1          -0.000035254    0.000006287   -0.000067996
     11        1          -0.000023072    0.000027387   -0.000067996
     12        1           0.000023072    0.000027387   -0.000067996
     13        1           0.000035254    0.000006287   -0.000067996
 -------------------------------------------------------------------
 Cartesian Forces:  Max     0.000381615 RMS     0.000123401

 GradGradGradGradGradGradGradGradGradGradGradGradGradGradGradGradGradGrad
 Berny optimization.
 Using GEDIIS/GDIIS optimizer.
 FormGI is forming the generalized inverse of G from B-inverse, IUseBI=4.
 Internal  Forces:  Max     0.000319968 RMS     0.000082676
 Search for a local minimum.
 Step number   2 out of a maximum of   61
 All quantities printed in internal units (Hartrees-Bohrs-Radians)
 Mixed Optimization -- En-DIIS/RFO-DIIS
 Swapping is turned off.
 Update second derivatives using D2CorX and points    1    2
 DE= -7.74D-05 DEPred=-7.96D-05 R= 9.73D-01
[...]
 --------------------------------------------------------------------------------
 ! R1    R(1,2)                  1.4914         -DE/DX =    0.0003              !
 ! R2    R(1,3)                  1.4914         -DE/DX =    0.0003              !
 ! R3    R(1,4)                  1.4914         -DE/DX =    0.0003              !
 ! R4    R(2,5)                  1.1027         -DE/DX =    0.0                 !
 ! R5    R(2,8)                  1.092          -DE/DX =   -0.0001              !
 ! R6    R(2,9)                  1.092          -DE/DX =   -0.0001              !
 ! R7    R(3,6)                  1.1027         -DE/DX =    0.0                 !
 ! R8    R(3,10)                 1.092          -DE/DX =   -0.0001              !
 ! R9    R(3,11)                 1.092          -DE/DX =   -0.0001              !
 ! R10   R(4,7)                  1.1027         -DE/DX =    0.0                 !
 ! R11   R(4,12)                 1.092          -DE/DX =   -0.0001              !
 ! R12   R(4,13)                 1.092          -DE/DX =   -0.0001              !
 ! A1    A(2,1,3)              118.8018         -DE/DX =    0.0                 !
 ! A2    A(2,1,4)              118.8018         -DE/DX =    0.0                 !
 ! A3    A(3,1,4)              118.8018         -DE/DX =    0.0                 !
 ! A4    A(1,2,5)              111.8395         -DE/DX =    0.0                 !
 ! A5    A(1,2,8)              111.8042         -DE/DX =    0.0                 !
 ! A6    A(1,2,9)              111.8042         -DE/DX =    0.0                 !
 ! A7    A(5,2,8)              106.4078         -DE/DX =    0.0                 !
 ! A8    A(5,2,9)              106.4078         -DE/DX =    0.0                 !
 ! A9    A(8,2,9)              108.2605         -DE/DX =    0.0                 !
 ! A10   A(1,3,6)              111.8395         -DE/DX =    0.0                 !
 ! A11   A(1,3,10)             111.8042         -DE/DX =    0.0                 !
 ! A12   A(1,3,11)             111.8042         -DE/DX =    0.0                 !
 ! A13   A(6,3,10)             106.4078         -DE/DX =    0.0                 !
 ! A14   A(6,3,11)             106.4078         -DE/DX =    0.0                 !
 ! A15   A(10,3,11)            108.2605         -DE/DX =    0.0                 !
 ! A16   A(1,4,7)              111.8395         -DE/DX =    0.0                 !
 ! A17   A(1,4,12)             111.8042         -DE/DX =    0.0                 !
 ! A18   A(1,4,13)             111.8042         -DE/DX =    0.0                 !
 ! A19   A(7,4,12)             106.4078         -DE/DX =    0.0                 !
 ! A20   A(7,4,13)             106.4078         -DE/DX =    0.0                 !
 ! A21   A(12,4,13)            108.2605         -DE/DX =    0.0                 !
 ! D1    D(3,1,2,5)             79.193          -DE/DX =    0.0                 !
 ! D2    D(3,1,2,8)           -161.5917         -DE/DX =    0.0                 !
 ! D3    D(3,1,2,9)            -40.0223         -DE/DX =    0.0                 !
 ! D4    D(4,1,2,5)            -79.193          -DE/DX =    0.0                 !
 ! D5    D(4,1,2,8)             40.0223         -DE/DX =    0.0                 !
 ! D6    D(4,1,2,9)            161.5917         -DE/DX =    0.0                 !
 ! D7    D(2,1,3,6)            -79.193          -DE/DX =    0.0                 !
 ! D8    D(2,1,3,10)            40.0223         -DE/DX =    0.0                 !
 ! D9    D(2,1,3,11)           161.5917         -DE/DX =    0.0                 !
 ! D10   D(4,1,3,6)             79.193          -DE/DX =    0.0                 !
 ! D11   D(4,1,3,10)          -161.5917         -DE/DX =    0.0                 !
 ! D12   D(4,1,3,11)           -40.0223         -DE/DX =    0.0                 !
 ! D13   D(2,1,4,7)             79.193          -DE/DX =    0.0                 !
 ! D14   D(2,1,4,12)          -161.5917         -DE/DX =    0.0                 !
 ! D15   D(2,1,4,13)           -40.0223         -DE/DX =    0.0                 !
 ! D16   D(3,1,4,7)            -79.193          -DE/DX =    0.0                 !
 ! D17   D(3,1,4,12)            40.0223         -DE/DX =    0.0                 !
 ! D18   D(3,1,4,13)           161.5917         -DE/DX =    0.0                 !
 --------------------------------------------------------------------------------
 GradGradGradGradGradGradGradGradGradGradGradGradGradGradGradGradGradGrad


 ----------------------------------------------------------------------

 Electric dipole moment (input orientation):
 (Debye = 10**-18 statcoulomb cm , SI units = C m)
                  (au)            (Debye)         (10**-30 SI)
   Tot        0.760459D-01      0.193289D+00      0.644744D+00
   x          0.000000D+00      0.000000D+00      0.000000D+00
   y          0.000000D+00      0.000000D+00      0.000000D+00
   z         -0.760459D-01     -0.193289D+00     -0.644744D+00

 Dipole polarizability, Alpha (input orientation).
 (esu units = cm**3 , SI units = C**2 m**2 J**-1)
 Alpha(0;0):
               (au)            (10**-24 esu)      (10**-40 SI)
   iso        0.528054D+02      0.782495D+01      0.870643D+01
   aniso      0.102526D+02      0.151927D+01      0.169042D+01
   xx         0.562231D+02      0.833141D+01      0.926994D+01
   yx         0.000000D+00      0.000000D+00      0.000000D+00
   yy         0.562227D+02      0.833134D+01      0.926986D+01
   zx         0.000000D+00      0.000000D+00      0.000000D+00
   zy        -0.197243D-03     -0.292285D-04     -0.325210D-04
   zz         0.459703D+02      0.681210D+01      0.757948D+01

 ----------------------------------------------------------------------

 Dipole orientation:
     6         -0.00000000          0.00000006         -0.28405816
     6         -0.00000000         -2.80000394          0.02859767
     6          2.42487459          1.40000206          0.02859767
     6         -2.42487459          1.40000206          0.02859767
     1         -0.00000000         -3.35621630          2.03661103
     1          2.90656863          1.67810824          2.03661103
     1         -2.90656863          1.67810824          2.03661103
     1         -1.67188392         -3.66586950         -0.81655571
     1          1.67188392         -3.66586950         -0.81655571
     1          4.01067812          0.38504089         -0.81655571
     1          2.33879420          3.28082878         -0.81655571
     1         -2.33879420          3.28082878         -0.81655571
     1         -4.01067812          0.38504089         -0.81655571

 Electric dipole moment (dipole orientation):
 (Debye = 10**-18 statcoulomb cm , SI units = C m)
                  (au)            (Debye)         (10**-30 SI)
   Tot        0.760459D-01      0.193289D+00      0.644744D+00
   x          0.000000D+00      0.000000D+00      0.000000D+00
   y          0.000000D+00      0.000000D+00      0.000000D+00
   z          0.760459D-01      0.193289D+00      0.644744D+00

 Dipole polarizability, Alpha (dipole orientation).
 (esu units = cm**3 , SI units = C**2 m**2 J**-1)
 Alpha(0;0):
               (au)            (10**-24 esu)      (10**-40 SI)
   iso        0.528054D+02      0.782495D+01      0.870643D+01
   aniso      0.102526D+02      0.151927D+01      0.169042D+01
   xx         0.562231D+02      0.833141D+01      0.926994D+01
   yx         0.000000D+00      0.000000D+00      0.000000D+00
   yy         0.562227D+02      0.833134D+01      0.926986D+01
   zx         0.000000D+00      0.000000D+00      0.000000D+00
   zy        -0.197243D-03     -0.292285D-04     -0.325210D-04
   zz         0.459703D+02      0.681210D+01      0.757948D+01

 ----------------------------------------------------------------------
 1\1\GINC-GAMBA\Freq\UB3LYP\Gen\C4H9(2)\IRIKURA\16-Jun-2022\0\\#N Geom=
 AllCheck Guess=TCheck SCRF=Check GenChk UB3LYP/ChkBas Freq\\term-butyl
 , B3LYP/pcseg-2\\0,2\C,0.,-0.0000000303,0.1503171028\C,0.,1.4816982749
 ,-0.015133237\C,1.283188373,-0.7408491829,-0.015133237\C,-1.283188373,
 -0.7408491829,-0.015133237\H,0.,1.7760331833,-1.0777281461\H,1.5380898
 81,-0.8880166371,-1.0777281461\H,-1.538089881,-0.8880166371,-1.0777281
 461\H,-0.8847228676,1.9398945959,0.4321026744\H,0.8847228676,1.9398945
 959,0.4321026744\H,2.1223594608,-0.2037548647,0.4321026744\H,1.2376365
 931,-1.7361398221,0.4321026744\H,-1.2376365931,-1.7361398221,0.4321026
 744\H,-2.1223594608,-0.2037548647,0.4321026744\\Version=ES64L-G16RevB.
 01\State=2-A1\HF=-157.8646585\S2=0.75416\S2-1=0.\S2A=0.750013\RMSD=2.5
 45e-09\RMSF=1.234e-04\ZeroPoint=0.116003\Thermal=0.1223681\Dipole=0.,0
 .,-0.0760459\DipoleDeriv=0.1865095,0.,0.,0.,0.1864955,-0.0000065,0.,-0
 .0000071,-0.2526739,0.0210273,0.,0.,0.,0.0287376,-0.0439883,0.,0.02377
 34,0.218071,0.026808,-0.0033379,-0.0380925,-0.0033308,0.0229504,0.0219
 991,0.0205944,-0.0118887,0.2180776,0.026808,0.0033379,0.0380925,0.0033
 308,0.0229504,0.0219991,-0.0205944,-0.0118887,0.2180776,0.0593072,0.,0
 .,0.,-0.0407689,0.0156259,0.,0.1349493,-0.1875206,-0.0157464,0.0433309
 ,0.0135328,0.0433309,0.0342888,-0.0078159,0.1168642,-0.0674728,-0.1875
 211,-0.0157464,-0.0433309,-0.0135328,-0.0433309,0.0342888,-0.0078159,-
 0.1168642,-0.0674728,-0.1875211,-0.0870289,0.105218,0.0787032,0.058529
 1,-0.0092885,-0.0172445,0.0786874,-0.0500337,0.0268365,-0.0870289,-0.1
 05218,-0.0787032,-0.0585291,-0.0092885,-0.0172445,-0.0786874,-0.050033
 7,0.0268365,-0.0996322,-0.051254,-0.0542889,-0.0979443,0.0033116,-0.05
 95357,-0.0826777,-0.043126,0.0268341,0.0421806,-0.016069,0.0244162,0.0
 306145,-0.1384949,0.0767798,-0.0039873,0.0931616,0.0268337,0.0421806,0
 .016069,-0.0244162,-0.0306145,-0.1384949,0.0767798,0.0039873,0.0931616
 ,0.0268337,-0.0996322,0.051254,0.0542889,0.0979443,0.0033116,-0.059535
 7,0.0826777,-0.043126,0.0268341\Polar=56.2231085,0.,56.2226577,0.,-0.0
 001972,45.9703236\Quadrupole=0.1838109,0.1838109,-0.3676217,0.,0.,0.\P
 G=C03V [C3(C1),3SGV(C1H1),X(H6)]\NImag=0\\0.51533412,0.,0.51533448,0.,
 -0.00000018,0.15348675,-0.08554101,0.,0.,0.56931322,0.,-0.20987711,0.0
 0943932,0.,0.47277185,0.,0.01336845,-0.05443049,0.,0.03012788,0.474502
 16,-0.17879276,0.05383916,0.00817475,0.00031901,0.00367292,0.00045402,
 0.49690719,0.05383919,-0.11662497,-0.00471972,0.02855585,-0.01828828,-
 0.00793916,0.04180364,0.54517788,0.01157810,-0.00668450,-0.05443089,-0
 .00664851,0.00436277,0.00583138,0.02609151,-0.01506394,0.47450216,-0.1
 7879276,-0.05383916,-0.00817475,0.00031901,-0.00367292,-0.00045401,-0.
 02759192,-0.01244146,-0.00710252,0.49690719,-0.05383919,-0.11662497,-0
 .00471972,-0.02855585,-0.01828827,-0.00793916,0.01244147,0.00962265,0.
 00357639,-0.04180364,0.54517787,-0.01157810,-0.00668451,-0.05443089,0.
 00664851,0.00436277,0.00583138,0.00710252,0.00357639,0.00583138,-0.026
 09151,-0.01506394,0.47450216,0.00016335,0.,0.,-0.04277405,0.,0.,0.0000
 6977,-0.00016785,0.00062442,0.00006977,0.00016785,-0.00062442,0.042780
 85,0.,-0.01712748,0.03242578,0.,-0.05430633,0.05979832,-0.00128664,0.0
 0132134,-0.00098135,0.00128664,0.00132134,-0.00098135,0.,0.06436976,0.
 ,0.01091275,-0.00052510,0.,0.04624260,-0.25728847,0.00058392,0.0000847
 5,0.00028665,-0.00058392,0.00008475,0.00028665,0.,-0.06358366,0.287165
 20,-0.01280471,0.00748713,0.02808164,0.00037863,-0.00146496,-0.0005376
 7,-0.05142326,0.00499363,0.05178686,0.00163826,0.00038108,-0.00116208,
 0.00000225,0.00098057,-0.00075416,0.05897254,0.00748711,-0.00415933,-0
 .01621290,-0.00034617,0.00101248,0.00103144,0.00499363,-0.04565712,-0.
 02989916,-0.00073772,-0.00024715,-0.00005009,0.00011342,-0.00062936,0.
 00051928,-0.00934827,0.04817808,0.00945060,-0.00545631,-0.00052515,0.0
 0036536,0.00046331,0.00028665,0.04004727,-0.02312130,-0.25728847,-0.00
 021856,-0.00054806,0.00028665,0.00007263,-0.00091276,0.00003244,-0.055
 06507,0.03179183,0.28716520,-0.01280471,-0.00748713,-0.02808164,0.0003
 7864,0.00146496,0.00053766,0.00163826,-0.00038108,0.00116208,-0.051423
 26,-0.00499363,-0.05178686,0.00000225,-0.00098057,0.00075416,-0.000945
 17,0.00043358,0.00082679,0.05897254,-0.00748711,-0.00415933,-0.0162129
 0,0.00034617,0.00101248,0.00103144,0.00073772,-0.00024715,-0.00005009,
 -0.00499363,-0.04565712,-0.02989916,-0.00011342,-0.00062936,0.00051928
 ,-0.00043358,0.00031806,0.00039348,0.00934827,0.04817808,-0.00945060,-
 0.00545630,-0.00052515,-0.00036536,0.00046331,0.00028665,0.00021856,-0
 .00054806,0.00028665,-0.04004727,-0.02312130,-0.25728847,-0.00007263,-
 0.00091276,0.00003244,-0.00082679,0.00039348,0.00003244,0.05506507,0.0
 3179183,0.28716520,-0.00075372,0.00216697,-0.00222263,-0.21755329,0.08
 230445,0.08616793,0.00093728,0.00017383,0.00050106,0.00073600,-0.00091
 198,-0.00082618,-0.00035207,-0.00033593,0.00054383,-0.00015334,0.00011
 049,0.00026682,-0.00003751,-0.00009490,0.00020883,0.23486168,0.0282152
 2,-0.01483327,-0.01063184,0.08239658,-0.08833531,-0.04574939,-0.001896
 19,-0.00542020,0.00056427,0.00164191,0.00142047,-0.00028437,-0.0062593
 0,0.00325419,0.00237575,0.00016837,-0.00005213,-0.00033425,-0.00023584
 ,0.00002373,-0.00003425,-0.09388324,0.09873784,-0.00474718,0.00343395,
 0.00189694,0.08662264,-0.04650264,-0.08758071,-0.00064903,0.00117538,0
 .00029642,0.00004154,0.00008519,-0.00022548,0.02653208,-0.01217273,-0.
 01484537,-0.00020870,0.00029391,0.00005708,0.00003579,-0.00021056,-0.0
 0020648,-0.09625663,0.04666945,0.09405855,-0.00075372,-0.00216697,0.00
 222263,-0.21755329,-0.08230445,-0.08616793,0.00073600,0.00091198,0.000
 82618,0.00093728,-0.00017383,-0.00050106,-0.00035207,0.00033593,-0.000
 54383,-0.00003751,0.00009490,-0.00020883,-0.00015334,-0.00011049,-0.00
 026682,-0.01910319,-0.01014912,-0.01124961,0.23486168,-0.02821522,-0.0
 1483327,-0.01063184,-0.08239658,-0.08833531,-0.04574939,-0.00164191,0.
 00142047,-0.00028437,0.00189619,-0.00542020,0.00056427,0.00625930,0.00
 325419,0.00237575,0.00023584,0.00002373,-0.00003425,-0.00016837,-0.000
 05214,-0.00033425,0.01014912,0.00524637,0.00701254,0.09388324,0.098737
 84,0.00474718,0.00343395,0.00189694,-0.08662264,-0.04650264,-0.0875807
 1,-0.00004154,0.00008519,-0.00022548,0.00064903,0.00117538,0.00029642,
 -0.02653208,-0.01217273,-0.01484537,-0.00003579,-0.00021056,-0.0002064
 8,0.00020870,0.00029391,0.00005708,0.01124961,0.00701254,0.00601093,0.
 09625663,0.04666945,0.09405855,-0.02446929,-0.01452290,-0.00809627,0.0
 0093328,-0.00175581,0.00016681,-0.19195744,-0.09717435,-0.08270409,-0.
 00308503,0.00421847,0.00023814,0.00015163,0.00012663,-0.00013408,0.005
 20844,0.00304894,0.00178555,-0.00019819,-0.00014248,-0.00042288,0.0004
 8274,-0.00012049,0.00029421,0.00056372,0.00121002,0.00013031,0.2140740
 7,0.01152521,0.00888223,0.00724081,0.00079808,0.00122319,0.00085768,-0
 .09708222,-0.11393116,-0.05174892,0.00214845,-0.00139789,-0.00071607,-
 0.00001430,-0.00016542,-0.00016372,-0.00287444,-0.00230632,-0.00165885
 ,-0.00008460,-0.00000729,-0.00006395,-0.00000906,0.00024674,0.00004800
 ,-0.00024729,0.00000789,-0.00022388,0.10588497,0.11952545,0.00534723,0
 .00239431,0.00189695,0.00005301,-0.00007857,-0.00022548,-0.08358379,-0
 .05176609,-0.08758071,0.00134242,-0.00002561,0.00029642,-0.00020024,0.
 00007429,-0.00020648,-0.02380793,-0.01689110,-0.01484537,0.00035888,0.
 00003378,0.00005708,0.00017876,0.00016284,0.00004066,-0.00012873,0.000
 22479,0.00021312,0.08854524,0.06002596,0.09405855,0.00184219,0.0267165
 3,-0.01031883,-0.00457664,0.00128728,0.00073920,-0.04932217,-0.0147317
 0,0.00346383,0.00156542,0.00116305,-0.00065936,0.00004331,0.00005483,-
 0.00015605,-0.00050319,-0.00617205,0.00232938,-0.00013480,-0.00017967,
 0.00007475,0.00012181,0.00134645,-0.00005440,0.00024964,0.00001409,0.0
 0023040,-0.00084102,-0.02069279,0.01169784,0.05146353,0.00066824,-0.01
 742956,0.00339114,0.00335729,0.00009371,0.00015180,-0.01482384,-0.2565
 6643,0.09749831,-0.00139085,0.00059105,-0.00057330,-0.00000305,-0.0002
 4879,0.00039820,-0.00024867,0.00340532,-0.00071691,-0.00003874,0.00012
 101,0.00019798,0.00020844,-0.00077590,0.00031825,0.00012552,0.00047984
 ,0.00007339,-0.00039455,-0.01301580,0.00623618,0.01200173,0.28213600,0
 .00060010,-0.00582800,0.00189697,0.00069339,-0.00114976,0.00029642,0.0
 0303885,0.09826873,-0.08758071,0.00009455,-0.00000662,-0.00022548,0.00
 015018,-0.00032769,0.00005708,0.00272415,0.02906382,-0.01484537,-0.000
 16446,0.00013627,-0.00020648,0.00024841,-0.00020624,0.00024371,0.00018
 867,0.00023079,0.00004066,0.00044823,-0.01324872,0.00601093,-0.0077113
 9,-0.10669541,0.09405855,0.00184219,-0.02671653,0.01031883,-0.00457664
 ,-0.00128727,-0.00073920,0.00156542,-0.00116305,0.00065936,-0.04932217
 ,0.01473170,-0.00346383,0.00004331,-0.00005483,0.00015606,-0.00013480,
 0.00017967,-0.00007475,-0.00050319,0.00617205,-0.00232938,0.00024964,-
 0.00001409,-0.00023040,0.00012181,-0.00134645,0.00005440,0.00036184,0.
 00007887,-0.00010554,-0.00027002,0.00072865,-0.00025904,0.05146353,-0.
 00066824,-0.01742956,0.00339114,-0.00335729,0.00009371,0.00015179,0.00
 139085,0.00059105,-0.00057330,0.01482384,-0.25656643,0.09749831,0.0000
 0305,-0.00024879,0.00039820,0.00003874,0.00012101,0.00019798,0.0002486
 7,0.00340532,-0.00071691,-0.00012552,0.00047984,0.00007339,-0.00020844
 ,-0.00077590,0.00031825,0.00019030,0.00036764,-0.00027879,-0.00072865,
 0.00084164,-0.00000091,-0.01200173,0.28213600,-0.00060010,-0.00582800,
 0.00189697,-0.00069339,-0.00114976,0.00029642,-0.00009455,-0.00000662,
 -0.00022548,-0.00303885,0.09826873,-0.08758071,-0.00015018,-0.00032769
 ,0.00005708,0.00016446,0.00013627,-0.00020648,-0.00272415,0.02906382,-
 0.01484537,-0.00018867,0.00023079,0.00004066,-0.00024841,-0.00020624,0
 .00024371,0.00005164,-0.00023623,0.00004066,0.00025904,-0.00000091,0.0
 0021312,0.00771139,-0.10669541,0.09405855,-0.02446929,0.01452290,0.008
 09627,0.00093328,0.00175581,-0.00016681,-0.00308503,-0.00421847,-0.000
 23814,-0.19195744,0.09717435,0.08270409,0.00015163,-0.00012663,0.00013
 408,-0.00019819,0.00014248,0.00042288,0.00520844,-0.00304894,-0.001785
 55,0.00056372,-0.00121002,-0.00013031,0.00048274,0.00012049,-0.0002942
 1,-0.00122476,0.00056900,0.00030281,0.00036184,-0.00019030,-0.00005164
 ,-0.00084102,0.00039455,-0.00044823,0.21407407,-0.01152521,0.00888223,
 0.00724081,-0.00079808,0.00122319,0.00085768,-0.00214845,-0.00139789,-
 0.00071607,0.09708222,-0.11393116,-0.05174892,0.00001430,-0.00016542,-
 0.00016372,0.00008460,-0.00000729,-0.00006395,0.00287444,-0.00230632,-
 0.00165885,0.00024729,0.00000789,-0.00022388,0.00000906,0.00024674,0.0
 0004800,-0.00056900,0.00057067,-0.00011201,-0.00007887,0.00036764,-0.0
 0023623,0.02069279,-0.01301580,-0.01324872,-0.10588497,0.11952545,-0.0
 0534723,0.00239431,0.00189695,-0.00005301,-0.00007857,-0.00022548,-0.0
 0134242,-0.00002561,0.00029642,0.08358379,-0.05176609,-0.08758071,0.00
 020024,0.00007429,-0.00020648,-0.00035888,0.00003378,0.00005708,0.0238
 0793,-0.01689110,-0.01484537,0.00012873,0.00022479,0.00021312,-0.00017
 876,0.00016284,0.00004066,-0.00030281,-0.00011201,0.00024371,0.0001055
 4,-0.00027879,0.00004066,-0.01169784,0.00623618,0.00601093,-0.08854524
 ,0.06002596,0.09405855\\0.,0.,0.00006948,0.,-0.00038160,-0.00019385,-0
 .00033048,0.00019080,-0.00019385,0.00033048,0.00019080,-0.00019385,0.,
 -0.00001026,0.00003470,-0.00000889,0.00000513,0.00003470,0.00000889,0.
 00000513,0.00003470,-0.00001217,0.00003367,0.00006799,0.00001217,0.000
 03367,0.00006799,0.00003524,-0.00000630,0.00006799,0.00002307,-0.00002
 737,0.00006799,-0.00002307,-0.00002737,0.00006799,-0.00003524,-0.00000
 630,0.00006799\\\@


 IT WAS AN ACT OF DESPARATION. FOR SIX YEARS I HAD STRUGGLED WITH THE
 BLACKBODY THEORY. I KNEW THE PROBLEM WAS FUNDAMENTAL, AND I KNEW
 THE ANSWER. I HAD TO FIND A THEORETICAL EXPLANATION AT ANY COST,
 EXCEPT FOR THE INVIOLABLITY OF THE TWO LAWS OF THERMODYNAMICS.
   -- MAX PLANCK, 1931
 Job cpu time:       0 days  0 hours 24 minutes 54.5 seconds.
 Elapsed time:       0 days  0 hours  2 minutes  5.8 seconds.
 File lengths (MBytes):  RWF=     65 Int=      0 D2E=      0 Chk=      8 Scr=      1
 Normal termination of Gaussian 16 at Thu Jun 16 11:11:18 2022.
