 Entering Gaussian System, Link 0=g16
 AtFile(1): pcseg2.gbs
            -H     0
            S   4   1.00
                  0.754732D+02           0.427821D-02
                  0.113575D+02           0.328672D-01
                  0.260081D+01           0.159578D+00
                  0.735503D+00           0.500000D+00
            S   1   1.00
                  0.231761D+00           1.0000000
            S   1   1.00
                  0.741675D-01           1.0000000
            P   1   1.00
                  0.160000D+01           1.0000000
            P   1   1.00
                  0.450000D+00           1.0000000
            D   1   1.00
                  0.125000D+01           1.0000000
            ****
            -C     0
            S   7   1.00
                  0.731999D+04           0.695369D-03
                  0.109818D+04           0.537138D-02
                  0.250014D+03           0.274734D-01
                  0.707586D+02           0.105078D+00
                  0.228595D+02           0.291262D+00
                  0.803936D+01           0.500000D+00
                  0.289309D+01           0.362224D+00
            S   2   1.00
                  0.521640D+01          -0.957844D-01
                  0.556124D+00           0.500000D+00
            S   1   1.00
                  0.228813D+00           1.0000000
            S   1   1.00
                  0.936338D-01           1.0000000
            P   4   1.00
                  0.339855D+02           0.818395D-02
                  0.772957D+01           0.586921D-01
                  0.224954D+01           0.222514D+00
                  0.767681D+00           0.500000D+00
            P   1   1.00
                  0.263283D+00           1.0000000
            P   1   1.00
                  0.848744D-01           1.0000000
            D   1   1.00
                  0.140000D+01           1.0000000
            D   1   1.00
                  0.450000D+00           1.0000000
            F   1   1.00
                  0.950000D+00           1.0000000
            ****
            -O     0
            S   7   1.00
                  0.135887D+05           0.665492D-03
                  0.203847D+04           0.514222D-02
                  0.464041D+03           0.263472D-01
                  0.131339D+03           0.101500D+00
                  0.425340D+02           0.285877D+00
                  0.150429D+02           0.500000D+00
                  0.546616D+01           0.368211D+00
            S   2   1.00
                  0.100915D+02          -0.100084D+00
                  0.110429D+01           0.500000D+00
            S   1   1.00
                  0.448082D+00           1.0000000
            S   1   1.00
                  0.175325D+00           1.0000000
            P   4   1.00
                  0.608220D+02           0.908253D-02
                  0.140332D+02           0.645878D-01
                  0.418244D+01           0.241502D+00
                  0.142490D+01           0.500000D+00
            P   1   1.00
                  0.478741D+00           1.0000000
            P   1   1.00
                  0.146257D+00           1.0000000
            D   1   1.00
                  0.220000D+01           1.0000000
            D   1   1.00
                  0.650000D+00           1.0000000
            F   1   1.00
                  0.110000D+01           1.0000000
            ****
            -N     0
            S   7   1.00
                  0.101643D+05           0.682757D-03
                  0.152481D+04           0.527488D-02
                  0.347119D+03           0.270037D-01
                  0.982389D+02           0.103673D+00
                  0.317799D+02           0.289575D+00
                  0.112240D+02           0.500000D+00
                  0.406611D+01           0.364621D+00
            S   2   1.00
                  0.747898D+01          -0.975681D-01
                  0.805040D+00           0.500000D+00
            S   1   1.00
                  0.324626D+00           1.0000000
            S   1   1.00
                  0.128132D+00           1.0000000
            P   4   1.00
                  0.482704D+02           0.829547D-02
                  0.110815D+02           0.596223D-01
                  0.326643D+01           0.227889D+00
                  0.111680D+01           0.500000D+00
            P   1   1.00
                  0.382049D+00           1.0000000
            P   1   1.00
                  0.121222D+00           1.0000000
            D   1   1.00
                  0.180000D+01           1.0000000
            D   1   1.00
                  0.550000D+00           1.0000000
            F   1   1.00
                  0.102000D+01           1.0000000
            ****
            -F     0
            S   7   1.00
                  0.174507D+05           0.655972D-03
                  0.261768D+04           0.506944D-02
                  0.595857D+03           0.259899D-01
                  0.168651D+03           0.100353D+00
                  0.546654D+02           0.284095D+00
                  0.193717D+02           0.500000D+00
                  0.706202D+01           0.370721D+00
            S   2   1.00
                  0.131197D+02          -0.101997D+00
                  0.145046D+01           0.500000D+00
            S   1   1.00
                  0.588255D+00           1.0000000
            S   1   1.00
                  0.227960D+00           1.0000000
            P   4   1.00
                  0.779407D+02           0.931135D-02
                  0.180425D+02           0.663964D-01
                  0.542342D+01           0.246386D+00
                  0.184876D+01           0.500000D+00
            P   1   1.00
                  0.617455D+00           1.0000000
            P   1   1.00
                  0.185496D+00           1.0000000
            D   1   1.00
                  0.280000D+01           1.0000000
            D   1   1.00
                  0.800000D+00           1.0000000
            F   1   1.00
                  0.120000D+01           1.0000000
            ****
            -Cl     0
            S   8   1.00
                  0.154272D+06           0.222473D-03
                  0.231232D+05           0.172590D-02
                  0.526257D+04           0.899286D-02
                  0.148995D+04           0.367724D-01
                  0.485417D+03           0.121446D+00
                  0.174634D+03           0.304148D+00
                  0.672393D+02           0.500000D+00
                  0.265780D+02           0.360252D+00
            S   3   1.00
                  0.131826D+03          -0.531330D-01
                  0.400703D+02          -0.233346D+00
                  0.789448D+01           0.500000D+00
            S   2   1.00
                  0.427711D+01           0.500000D+00
                  0.196233D+01           0.370517D+00
            S   1   1.00
                  0.520793D+00           1.0000000
            S   1   1.00
                  0.181633D+00           1.0000000
            P   7   1.00
                  0.124440D+04           0.988206D-03
                  0.295109D+03           0.829674D-02
                  0.947224D+02           0.430906D-01
                  0.352588D+02           0.148443D+00
                  0.144211D+02           0.344744D+00
                  0.610371D+01           0.500000D+00
                  0.258886D+01           0.348278D+00
            P   2   1.00
                  0.109447D+02          -0.196768D-01
                  0.104413D+01           0.500000D+00
            P   1   1.00
                  0.376184D+00           1.0000000
            P   1   1.00
                  0.120613D+00           1.0000000
            D   1   1.00
                  0.231000D+01           1.0000000
            D   1   1.00
                  0.520000D+00           1.0000000
            F   1   1.00
                  0.720000D+00           1.0000000
            ****
            -S     0
            S   8   1.00
                  0.134700D+06           0.226231D-03
                  0.201904D+05           0.175488D-02
                  0.459528D+04           0.914190D-02
                  0.130109D+04           0.373551D-01
                  0.423902D+03           0.123121D+00
                  0.152485D+03           0.306801D+00
                  0.586925D+02           0.500000D+00
                  0.231461D+02           0.354358D+00
            S   3   1.00
                  0.116327D+03          -0.491772D-01
                  0.352841D+02          -0.215962D+00
                  0.677831D+01           0.500000D+00
            S   2   1.00
                  0.360404D+01           0.500000D+00
                  0.164871D+01           0.366278D+00
            S   1   1.00
                  0.421821D+00           1.0000000
            S   1   1.00
                  0.147554D+00           1.0000000
            P   7   1.00
                  0.104863D+04           0.105273D-02
                  0.248717D+03           0.879338D-02
                  0.797887D+02           0.453358D-01
                  0.296023D+02           0.154476D+00
                  0.120627D+02           0.352366D+00
                  0.507628D+01           0.500000D+00
                  0.213375D+01           0.346429D+00
            P   2   1.00
                  0.928958D+01          -0.185932D-01
                  0.837819D+00           0.500000D+00
            P   1   1.00
                  0.301495D+00           1.0000000
            P   1   1.00
                  0.974740D-01           1.0000000
            D   1   1.00
                  0.210000D+01           1.0000000
            D   1   1.00
                  0.480000D+00           1.0000000
            F   1   1.00
                  0.660000D+00           1.0000000
            ****
            -Br     0
            S    10   1.00
                  0.233625D+07           0.532336D-04
                  0.349961D+06           0.413715D-03
                  0.796444D+05           0.217123D-02
                  0.225555D+05           0.910109D-02
                  0.735546D+04           0.323789D-01
                  0.265352D+04           0.988755D-01
                  0.103517D+04           0.248138D+00
                  0.422205D+03           0.474328D+00
                  0.180035D+03           0.500000D+00
                  0.793308D+02           0.187769D+00
            S    4   1.00
                  0.620834D+03          -0.226511D-01
                  0.190829D+03          -0.109497D+00
                  0.312505D+02           0.500000D+00
                  0.135270D+02           0.492812D+00
            S    2   1.00
                  0.216097D+02          -0.165418D+00
                  0.372566D+01           0.500000D+00
            S    1   1.00
                  0.169770D+01           1.0000000
            S    1   1.00
                  0.489332D+00           1.0000000
            S    1   1.00
                  0.175712D+00           1.0000000
            P    8   1.00
                  0.960829D+04           0.478974D-03
                  0.227618D+04           0.417853D-02
                  0.736723D+03           0.229315D-01
                  0.281579D+03           0.892653D-01
                  0.118395D+03           0.255288D+00
                  0.527481D+02           0.479074D+00
                  0.245098D+02           0.500000D+00
                  0.112009D+02           0.200944D+00
            P    4   1.00
                  0.587849D+02          -0.189674D-01
                  0.918962D+01           0.264104D+00
                  0.413895D+01           0.500000D+00
                  0.184225D+01           0.319316D+00
            P    1   1.00
                  0.713862D+00           1.0000000
            P    1   1.00
                  0.274232D+00           1.0000000
            P    1   1.00
                  0.944411D-01           1.0000000
            D    7   1.00
                  0.398470D+03           0.204066D-02
                  0.118967D+03           0.175171D-01
                  0.450197D+02           0.829708D-01
                  0.190320D+02           0.236284D+00
                  0.855686D+01           0.428468D+00
                  0.382950D+01           0.500000D+00
                  0.166291D+01           0.349360D+00
            D    1   1.00
                  0.672953D+00           1.0000000
            D    1   1.00
                  0.252000D+00           1.0000000
            F    1   1.00
                  0.530000D+00           1.0000000
            ****
            -Si     0
            S    8   1.00
                  0.996133D+05           0.235546D-03
                  0.149311D+05           0.182707D-02
                  0.339820D+04           0.951425D-02
                  0.962140D+03           0.388172D-01
                  0.313430D+03           0.127328D+00
                  0.112683D+03           0.313522D+00
                  0.433372D+02           0.500000D+00
                  0.170029D+02           0.340347D+00
            S    3   1.00
                  0.884208D+02          -0.404451D-01
                  0.266756D+02          -0.178059D+00
                  0.479640D+01           0.500000D+00
            S    2   1.00
                  0.239385D+01           0.500000D+00
                  0.108333D+01           0.338016D+00
            S    1   1.00
                  0.252420D+00           1.0000000
            S    1   1.00
                  0.891210D-01           1.0000000
            P    7   1.00
                  0.709901D+03           0.123028D-02
                  0.168426D+03           0.101366D-01
                  0.539946D+02           0.511840D-01
                  0.198646D+02           0.169967D+00
                  0.801369D+01           0.370717D+00
                  0.331870D+01           0.500000D+00
                  0.136112D+01           0.344128D+00
            P    2   1.00
                  0.622158D+01          -0.166609D-01
                  0.503049D+00           0.500000D+00
            P    1   1.00
                  0.179848D+00           1.0000000
            P    1   1.00
                  0.591912D-01           1.0000000
            D    1   1.00
                  0.168000D+01           1.0000000
            D    1   1.00
                  0.380000D+00           1.0000000
            F    1   1.00
                  0.540000D+00           1.0000000
            ****
            -P     0
            S    8   1.00
                  0.116416D+06           0.230715D-03
                  0.174500D+05           0.178960D-02
                  0.397149D+04           0.932116D-02
                  0.112447D+04           0.380591D-01
                  0.366347D+03           0.125148D+00
                  0.131757D+03           0.310022D+00
                  0.506988D+02           0.500000D+00
                  0.199436D+02           0.347528D+00
            S    3   1.00
                  0.101878D+03          -0.446755D-01
                  0.308249D+02          -0.196376D+00
                  0.573688D+01           0.500000D+00
            S    2   1.00
                  0.296868D+01           0.500000D+00
                  0.135315D+01           0.355098D+00
            S    1   1.00
                  0.332196D+00           1.0000000
            S    1   1.00
                  0.116229D+00           1.0000000
            P    7   1.00
                  0.873928D+03           0.112375D-02
                  0.207298D+03           0.933330D-02
                  0.664628D+02           0.477213D-01
                  0.245665D+02           0.160733D+00
                  0.996820D+01           0.359760D+00
                  0.416536D+01           0.500000D+00
                  0.173022D+01           0.346593D+00
            P    2   1.00
                  0.772530D+01          -0.175718D-01
                  0.657252D+00           0.500000D+00
            P    1   1.00
                  0.239903D+00           1.0000000
            P    1   1.00
                  0.800988D-01           1.0000000
            D    1   1.00
                  0.189000D+01           1.0000000
            D    1   1.00
                  0.430000D+00           1.0000000
            F    1   1.00
                  0.600000D+00           1.0000000
            ****
            
 Initial command:
 /usr/local/apps/g16_b01_avx/g16/l1.exe "/wrk/irikura/Gau-9695.inp" -scrdir="/wrk/irikura/"
 Entering Link 1 = /usr/local/apps/g16_b01_avx/g16/l1.exe PID=      9697.
  
 Copyright (c) 1988-2017, Gaussian, Inc.  All Rights Reserved.
  
 This is part of the Gaussian(R) 16 program.  It is based on
 the Gaussian(R) 09 system (copyright 2009, Gaussian, Inc.),
 the Gaussian(R) 03 system (copyright 2003, Gaussian, Inc.),
 the Gaussian(R) 98 system (copyright 1998, Gaussian, Inc.),
 the Gaussian(R) 94 system (copyright 1995, Gaussian, Inc.),
 the Gaussian 92(TM) system (copyright 1992, Gaussian, Inc.),
 the Gaussian 90(TM) system (copyright 1990, Gaussian, Inc.),
 the Gaussian 88(TM) system (copyright 1988, Gaussian, Inc.),
 the Gaussian 86(TM) system (copyright 1986, Carnegie Mellon
 University), and the Gaussian 82(TM) system (copyright 1983,
 Carnegie Mellon University). Gaussian is a federally registered
 trademark of Gaussian, Inc.
  
 This software contains proprietary and confidential information,
 including trade secrets, belonging to Gaussian, Inc.
  
 This software is provided under written license and may be
 used, copied, transmitted, or stored only in accord with that
 written license.
  
 The following legend is applicable only to US Government
 contracts under FAR:
  
                    RESTRICTED RIGHTS LEGEND
  
 Use, reproduction and disclosure by the US Government is
 subject to restrictions as set forth in subparagraphs (a)
 and (c) of the Commercial Computer Software - Restricted
 Rights clause in FAR 52.227-19.
  
 Gaussian, Inc.
 340 Quinnipiac St., Bldg. 40, Wallingford CT 06492
  
  
 ---------------------------------------------------------------
 Warning -- This program may not be used in any manner that
 competes with the business of Gaussian, Inc. or will provide
 assistance to any competitor of Gaussian, Inc.  The licensee
 of this program is prohibited from giving any competitor of
 Gaussian, Inc. access to this program.  By using this program,
 the user acknowledges that Gaussian, Inc. is engaged in the
 business of creating and licensing software in the field of
 computational chemistry and represents and warrants to the
 licensee that it is not a competitor of Gaussian, Inc. and that
 it will not use this program in any manner prohibited above.
 ---------------------------------------------------------------
  

 Cite this work as:
 Gaussian 16, Revision B.01,
 M. J. Frisch, G. W. Trucks, H. B. Schlegel, G. E. Scuseria, 
 M. A. Robb, J. R. Cheeseman, G. Scalmani, V. Barone, 
 G. A. Petersson, H. Nakatsuji, X. Li, M. Caricato, A. V. Marenich, 
 J. Bloino, B. G. Janesko, R. Gomperts, B. Mennucci, H. P. Hratchian, 
 J. V. Ortiz, A. F. Izmaylov, J. L. Sonnenberg, D. Williams-Young, 
 F. Ding, F. Lipparini, F. Egidi, J. Goings, B. Peng, A. Petrone, 
 T. Henderson, D. Ranasinghe, V. G. Zakrzewski, J. Gao, N. Rega, 
 G. Zheng, W. Liang, M. Hada, M. Ehara, K. Toyota, R. Fukuda, 
 J. Hasegawa, M. Ishida, T. Nakajima, Y. Honda, O. Kitao, H. Nakai, 
 T. Vreven, K. Throssell, J. A. Montgomery, Jr., J. E. Peralta, 
 F. Ogliaro, M. J. Bearpark, J. J. Heyd, E. N. Brothers, K. N. Kudin, 
 V. N. Staroverov, T. A. Keith, R. Kobayashi, J. Normand, 
 K. Raghavachari, A. P. Rendell, J. C. Burant, S. S. Iyengar, 
 J. Tomasi, M. Cossi, J. M. Millam, M. Klene, C. Adamo, R. Cammi, 
 J. W. Ochterski, R. L. Martin, K. Morokuma, O. Farkas, 
 J. B. Foresman, and D. J. Fox, Gaussian, Inc., Wallingford CT, 2016.
 
 ******************************************
 Gaussian 16:  ES64L-G16RevB.01 20-Dec-2017
                17-Jun-2022 
 ******************************************
 %mem=1000mw
 %nprocs=12
 Will use up to   12 processors via shared memory.
 --------------------
 # b3lyp/gen opt freq
 --------------------
 1/18=20,19=15,26=3,38=1/1,3;
 2/9=110,12=2,17=6,18=5,40=1/2;
 3/5=7,11=2,25=1,30=1,71=1,74=-5/1,2,3;
 4//1;
 5/5=2,38=5/2;
 6/7=2,8=2,9=2,10=2,28=1/1;
 7//1,2,3,16;
 1/18=20,19=15,26=3/3(2);
 2/9=110/2;
 99//99;
 2/9=110/2;
 3/5=7,6=1,11=2,25=1,30=1,71=1,74=-5,82=7/1,2,3;
 4/5=5,16=3,69=1/1;
 5/5=2,38=5/2;
 7//1,2,3,16;
 1/18=20,19=15,26=3/3(-5);
 2/9=110/2;
 6/7=2,8=2,9=2,10=2,19=2,28=1/1;
 99/9=1/99;
 --------------------------------
 trichloroethylene, B3LYP/pcseg-2
 --------------------------------
 Symbolic Z-matrix:
 Charge =  0 Multiplicity = 1
 C                    -1.03752  -0.3902    0. 
 C                     0.        0.43897   0. 
 H                    -2.04965  -0.01665   0. 
 Cl                   -0.9099   -2.12058   0. 
 Cl                   -0.26274   2.16623   0. 
 Cl                    1.65938  -0.06188   0. 
 

 GradGradGradGradGradGradGradGradGradGradGradGradGradGradGradGradGradGrad
 Berny optimization.
 Initialization pass.
                           ----------------------------
                           !    Initial Parameters    !
                           ! (Angstroms and Degrees)  !
 --------------------------                            --------------------------
 ! Name  Definition              Value          Derivative Info.                !
 --------------------------------------------------------------------------------
 ! R1    R(1,2)                  1.3281         estimate D2E/DX2                !
 ! R2    R(1,3)                  1.0789         estimate D2E/DX2                !
 ! R3    R(1,4)                  1.7351         estimate D2E/DX2                !
 ! R4    R(2,5)                  1.7471         estimate D2E/DX2                !
 ! R5    R(2,6)                  1.7333         estimate D2E/DX2                !
 ! A1    A(2,1,3)              121.1113         estimate D2E/DX2                !
 ! A2    A(2,1,4)              124.4129         estimate D2E/DX2                !
 ! A3    A(3,1,4)              114.4758         estimate D2E/DX2                !
 ! A4    A(1,2,5)              119.982          estimate D2E/DX2                !
 ! A5    A(1,2,6)              124.5735         estimate D2E/DX2                !
 ! A6    A(5,2,6)              115.4444         estimate D2E/DX2                !
 ! D1    D(3,1,2,5)              0.0            estimate D2E/DX2                !
 ! D2    D(3,1,2,6)            180.0            estimate D2E/DX2                !
 ! D3    D(4,1,2,5)            180.0            estimate D2E/DX2                !
 ! D4    D(4,1,2,6)              0.0            estimate D2E/DX2                !
 --------------------------------------------------------------------------------
 Trust Radius=3.00D-01 FncErr=1.00D-07 GrdErr=1.00D-06 EigMax=2.50D+02 EigMin=1.00D-04
 Number of steps in this run=     25 maximum allowed number of steps=    100.
 GradGradGradGradGradGradGradGradGradGradGradGradGradGradGradGradGradGrad

                          Input orientation:                          
 ---------------------------------------------------------------------
 Center     Atomic      Atomic             Coordinates (Angstroms)
 Number     Number       Type             X           Y           Z
 ---------------------------------------------------------------------
      1          6           0       -1.037519   -0.390196    0.000000
      2          6           0        0.000000    0.438967    0.000000
      3          1           0       -2.049649   -0.016649    0.000000
      4         17           0       -0.909895   -2.120582    0.000000
      5         17           0       -0.262738    2.166232    0.000000
      6         17           0        1.659384   -0.061884    0.000000
 ---------------------------------------------------------------------
                    Distance matrix (angstroms):
                    1          2          3          4          5
     1  C    0.000000
     2  C    1.328140   0.000000
     3  H    1.078863   2.099678   0.000000
     4  Cl   1.735086   2.716468   2.392817   0.000000
     5  Cl   2.671256   1.747134   2.820996   4.335388   0.000000
     6  Cl   2.716813   1.733323   3.709309   3.292329   2.942627
                    6
     6  Cl   0.000000
 Stoichiometry    C2HCl3
 Framework group  CS[SG(C2HCl3)]
 Deg. of freedom     9
 Full point group                 CS      NOp   2
 Largest Abelian subgroup         CS      NOp   2
 Largest concise Abelian subgroup C1      NOp   1
                         Standard orientation:                         
 ---------------------------------------------------------------------
 Center     Atomic      Atomic             Coordinates (Angstroms)
 Number     Number       Type             X           Y           Z
 ---------------------------------------------------------------------
      1          6           0       -1.037519   -0.390196    0.000000
      2          6           0        0.000000    0.438967    0.000000
      3          1           0       -2.049649   -0.016649    0.000000
      4         17           0       -0.909895   -2.120582    0.000000
      5         17           0       -0.262738    2.166232    0.000000
      6         17           0        1.659384   -0.061884    0.000000
 ---------------------------------------------------------------------
 Rotational constants (GHZ):           3.8171906           1.4952997           1.0744197
 General basis read from cards:  (5D, 7F)
 There are   140 symmetry adapted cartesian basis functions of A'  symmetry.
 There are    62 symmetry adapted cartesian basis functions of A"  symmetry.
 There are   119 symmetry adapted basis functions of A'  symmetry.
 There are    57 symmetry adapted basis functions of A"  symmetry.
   176 basis functions,   330 primitive gaussians,   202 cartesian basis functions
    32 alpha electrons       32 beta electrons
       nuclear repulsion energy       314.9568151798 Hartrees.
 NAtoms=    6 NActive=    6 NUniq=    6 SFac= 1.00D+00 NAtFMM=   60 NAOKFM=F Big=F
 Integral buffers will be    131072 words long.
 Raffenetti 2 integral format.
 Two-electron integral symmetry is turned on.
 One-electron integrals computed using PRISM.
 NBasis=   176 RedAO= T EigKep=  4.13D-04  NBF=   119    57
 NBsUse=   176 1.00D-06 EigRej= -1.00D+00 NBFU=   119    57
 ExpMin= 7.42D-02 ExpMax= 1.54D+05 ExpMxC= 1.49D+03 IAcc=3 IRadAn=         5 AccDes= 0.00D+00
 Harris functional with IExCor=  402 and IRadAn=       5 diagonalized for initial guess.
 HarFok:  IExCor=  402 AccDes= 0.00D+00 IRadAn=         5 IDoV= 1 UseB2=F ITyADJ=14
 ICtDFT=  3500011 ScaDFX=  1.000000  1.000000  1.000000  1.000000
 FoFCou: FMM=F IPFlag=           0 FMFlag=      100000 FMFlg1=           0
         NFxFlg=           0 DoJE=T BraDBF=F KetDBF=T FulRan=T
         wScrn=  0.000000 ICntrl=       500 IOpCl=  0 I1Cent=   200000004 NGrid=           0
         NMat0=    1 NMatS0=      1 NMatT0=    0 NMatD0=    1 NMtDS0=    0 NMtDT0=    0
 Petite list used in FoFCou.
 Initial guess orbital symmetries:
       Occupied  (A') (A') (A') (A') (A') (A') (A') (A') (A') (A')
                 (A') (A') (A") (A") (A') (A') (A") (A') (A') (A')
                 (A') (A') (A') (A') (A") (A') (A") (A') (A') (A")
                 (A') (A")
       Virtual   (A") (A') (A') (A') (A') (A') (A') (A") (A') (A')
                 (A") (A') (A') (A') (A') (A") (A') (A') (A') (A")
                 (A') (A") (A') (A") (A') (A") (A') (A") (A") (A")
                 (A') (A") (A') (A') (A') (A') (A') (A') (A') (A")
                 (A') (A') (A') (A") (A') (A") (A') (A') (A') (A")
                 (A') (A") (A") (A') (A') (A") (A') (A') (A') (A')
                 (A') (A') (A') (A") (A") (A') (A") (A") (A') (A")
                 (A') (A') (A') (A") (A') (A") (A") (A') (A') (A")
                 (A") (A') (A') (A') (A') (A") (A") (A') (A') (A')
                 (A') (A') (A') (A") (A") (A') (A') (A") (A') (A")
                 (A") (A') (A") (A') (A') (A') (A") (A') (A") (A')
                 (A') (A') (A") (A") (A') (A") (A') (A") (A') (A')
                 (A') (A") (A") (A") (A') (A") (A') (A") (A') (A')
                 (A') (A") (A') (A') (A') (A") (A') (A') (A') (A')
                 (A') (A') (A') (A')
 The electronic state of the initial guess is 1-A'.
 Keep R1 ints in memory in symmetry-blocked form, NReq=183019392.
 Requested convergence on RMS density matrix=1.00D-08 within 128 cycles.
 Requested convergence on MAX density matrix=1.00D-06.
 Requested convergence on             energy=1.00D-06.
 No special actions if energy rises.
 Integral accuracy reduced to 1.0D-05 until final iterations.
 Initial convergence to 1.0D-05 achieved.  Increase integral accuracy.
 SCF Done:  E(RB3LYP) =  -1457.52138154     A.U. after   13 cycles
            NFock= 13  Conv=0.82D-08     -V/T= 2.0011

 **********************************************************************

            Population analysis using the SCF Density.

 **********************************************************************

 Orbital symmetries:
       Occupied  (A') (A') (A') (A') (A') (A') (A') (A') (A') (A')
                 (A') (A") (A") (A') (A') (A") (A') (A') (A') (A')
                 (A') (A') (A') (A') (A") (A') (A") (A') (A") (A')
                 (A') (A")
       Virtual   (A") (A') (A') (A') (A') (A') (A') (A") (A') (A')
                 (A") (A') (A') (A') (A') (A') (A") (A') (A') (A")
                 (A') (A") (A') (A") (A') (A") (A') (A") (A") (A")
                 (A') (A") (A') (A') (A') (A') (A') (A') (A') (A")
                 (A') (A') (A') (A") (A') (A') (A") (A') (A') (A')
                 (A") (A") (A") (A') (A') (A") (A') (A') (A') (A')
                 (A') (A') (A") (A") (A') (A') (A") (A') (A") (A")
                 (A') (A') (A') (A") (A') (A") (A') (A") (A') (A")
                 (A") (A') (A') (A') (A") (A') (A") (A') (A') (A')
                 (A') (A') (A') (A") (A") (A') (A') (A") (A") (A')
                 (A") (A') (A") (A') (A') (A") (A') (A') (A") (A')
                 (A') (A') (A") (A") (A') (A") (A') (A") (A') (A')
                 (A') (A") (A") (A") (A') (A") (A') (A") (A') (A')
                 (A') (A") (A') (A') (A') (A") (A') (A') (A') (A')
                 (A') (A') (A') (A')
 The electronic state is 1-A'.
 Alpha  occ. eigenvalues -- -101.54573-101.54562-101.53880 -10.31038 -10.26064
 Alpha  occ. eigenvalues --   -9.49034  -9.49020  -9.48333  -7.25235  -7.25226
 Alpha  occ. eigenvalues --   -7.24517  -7.24315  -7.24279  -7.24266  -7.24262
 Alpha  occ. eigenvalues --   -7.23634  -7.23565  -0.94251  -0.88406  -0.85587
 Alpha  occ. eigenvalues --   -0.74865  -0.58606  -0.51806  -0.49787  -0.43631
 Alpha  occ. eigenvalues --   -0.43254  -0.36985  -0.36218  -0.34920  -0.34228
 Alpha  occ. eigenvalues --   -0.32834  -0.26851
 Alpha virt. eigenvalues --   -0.04155  -0.02327  -0.01381   0.01844   0.08005
 Alpha virt. eigenvalues --    0.10309   0.12630   0.16436   0.18505   0.21530
 Alpha virt. eigenvalues --    0.23161   0.24030   0.25075   0.27793   0.29354
 Alpha virt. eigenvalues --    0.30786   0.30786   0.31501   0.32595   0.34191
 Alpha virt. eigenvalues --    0.35253   0.35670   0.42824   0.44858   0.47533
 Alpha virt. eigenvalues --    0.50406   0.53120   0.53137   0.54849   0.55260
 Alpha virt. eigenvalues --    0.58027   0.60364   0.61052   0.63505   0.64425
 Alpha virt. eigenvalues --    0.69184   0.71670   0.72394   0.78213   0.82049
 Alpha virt. eigenvalues --    0.87116   0.96679   1.01523   1.01842   1.04942
 Alpha virt. eigenvalues --    1.08669   1.09187   1.13573   1.16277   1.21944
 Alpha virt. eigenvalues --    1.23575   1.32047   1.39827   1.41260   1.48335
 Alpha virt. eigenvalues --    1.51732   1.66762   1.68518   1.73506   1.80179
 Alpha virt. eigenvalues --    1.89603   1.92358   2.04376   2.05084   2.05922
 Alpha virt. eigenvalues --    2.07920   2.08945   2.09246   2.09389   2.09746
 Alpha virt. eigenvalues --    2.09876   2.10718   2.11574   2.13156   2.14451
 Alpha virt. eigenvalues --    2.14899   2.17372   2.17715   2.18818   2.21046
 Alpha virt. eigenvalues --    2.21437   2.24165   2.27686   2.28655   2.34038
 Alpha virt. eigenvalues --    2.35901   2.40464   2.42448   2.48311   2.52726
 Alpha virt. eigenvalues --    2.56470   2.64811   2.80811   3.10227   3.17865
 Alpha virt. eigenvalues --    3.20119   3.27008   3.27207   3.36532   3.37418
 Alpha virt. eigenvalues --    3.45984   3.47528   3.48660   3.49159   3.50352
 Alpha virt. eigenvalues --    3.52105   3.52247   3.55939   3.58111   3.66719
 Alpha virt. eigenvalues --    3.70995   3.80783   3.85734   3.87635   3.94662
 Alpha virt. eigenvalues --    3.98607   4.02154   4.11333   4.12349   4.19807
 Alpha virt. eigenvalues --    4.25340   4.27530   4.30780   4.35394   4.40711
 Alpha virt. eigenvalues --    4.45407   4.49668   4.56654   4.62214   4.72606
 Alpha virt. eigenvalues --    4.78885   4.86159   4.98802   5.05049   5.24290
 Alpha virt. eigenvalues --    5.41440   5.43453   5.74420   5.74835   5.84217
 Alpha virt. eigenvalues --    6.08251  32.66638  33.09356  33.47504
          Condensed to atoms (all electrons):
               1          2          3          4          5          6
     1  C    4.914559   0.477845   0.442671   0.310460  -0.075672  -0.086100
     2  C    0.477845   4.966650  -0.070314  -0.071545   0.303576   0.336567
     3  H    0.442671  -0.070314   0.561568  -0.056980   0.000813   0.005993
     4  Cl   0.310460  -0.071545  -0.056980  16.890411   0.005681  -0.004732
     5  Cl  -0.075672   0.303576   0.000813   0.005681  16.908601  -0.076113
     6  Cl  -0.086100   0.336567   0.005993  -0.004732  -0.076113  16.873907
 Mulliken charges:
               1
     1  C    0.016235
     2  C    0.057220
     3  H    0.116248
     4  Cl  -0.073296
     5  Cl  -0.066886
     6  Cl  -0.049522
 Sum of Mulliken charges =  -0.00000
 Mulliken charges with hydrogens summed into heavy atoms:
               1
     1  C    0.132483
     2  C    0.057220
     4  Cl  -0.073296
     5  Cl  -0.066886
     6  Cl  -0.049522
 Electronic spatial extent (au):  <R**2>=            934.3812
 Charge=             -0.0000 electrons
 Dipole moment (field-independent basis, Debye):
    X=             -0.8476    Y=              0.2624    Z=              0.0000  Tot=              0.8873
 Quadrupole moment (field-independent basis, Debye-Ang):
   XX=            -46.7289   YY=            -49.9731   ZZ=            -50.1794
   XY=             -1.0514   XZ=              0.0000   YZ=              0.0000
 Traceless Quadrupole moment (field-independent basis, Debye-Ang):
   XX=              2.2316   YY=             -1.0127   ZZ=             -1.2189
   XY=             -1.0514   XZ=              0.0000   YZ=              0.0000
 Octapole moment (field-independent basis, Debye-Ang**2):
  XXX=              1.6189  YYY=              0.9407  ZZZ=              0.0000  XYY=              1.3903
  XXY=             -0.2028  XXZ=              0.0000  XZZ=              1.3948  YZZ=              0.0289
  YYZ=              0.0000  XYZ=              0.0000
 Hexadecapole moment (field-independent basis, Debye-Ang**3):
 XXXX=           -351.3159 YYYY=           -709.8519 ZZZZ=            -57.6072 XXXY=            -61.6369
 XXXZ=              0.0000 YYYX=            -57.4805 YYYZ=              0.0000 ZZZX=              0.0000
 ZZZY=              0.0000 XXYY=           -194.8849 XXZZ=            -74.9417 YYZZ=           -139.1074
 XXYZ=              0.0000 YYXZ=              0.0000 ZZXY=            -18.4975
 N-N= 3.149568151798D+02 E-N=-4.092307881650D+03  KE= 1.455943095626D+03
 Symmetry A'   KE= 1.315408694941D+03
 Symmetry A"   KE= 1.405344006846D+02
 Calling FoFJK, ICntrl=      2127 FMM=F ISym2X=1 I1Cent= 0 IOpClX= 0 NMat=1 NMatS=1 NMatT=0.
 ***** Axes restored to original set *****
 -------------------------------------------------------------------
 Center     Atomic                   Forces (Hartrees/Bohr)
 Number     Number              X              Y              Z
 -------------------------------------------------------------------
      1        6           0.000035403   -0.004719494   -0.000000000
      2        6           0.004373311    0.002650919   -0.000000000
      3        1           0.000914865   -0.000192756   -0.000000000
      4       17          -0.000112405    0.006213049   -0.000000000
      5       17           0.001090670   -0.006131551   -0.000000000
      6       17          -0.006301845    0.002179833   -0.000000000
 -------------------------------------------------------------------
 Cartesian Forces:  Max     0.006301845 RMS     0.003083714

 GradGradGradGradGradGradGradGradGradGradGradGradGradGradGradGradGradGrad
 Berny optimization.
 FormGI is forming the generalized inverse of G from B-inverse, IUseBI=4.
 Internal  Forces:  Max     0.006663371 RMS     0.002895340
 Search for a local minimum.
 Step number   1 out of a maximum of   25
 All quantities printed in internal units (Hartrees-Bohrs-Radians)
 Mixed Optimization -- RFO/linear search
 Second derivative matrix not updated -- first step.
 The second derivative matrix:
                          R1        R2        R3        R4        R5
           R1           0.59947
           R2           0.00000   0.36132
           R3           0.00000   0.00000   0.31978
           R4           0.00000   0.00000   0.00000   0.30767
           R5           0.00000   0.00000   0.00000   0.00000   0.32161
           A1           0.00000   0.00000   0.00000   0.00000   0.00000
           A2           0.00000   0.00000   0.00000   0.00000   0.00000
           A3           0.00000   0.00000   0.00000   0.00000   0.00000
           A4           0.00000   0.00000   0.00000   0.00000   0.00000
           A5           0.00000   0.00000   0.00000   0.00000   0.00000
           A6           0.00000   0.00000   0.00000   0.00000   0.00000
           D1           0.00000   0.00000   0.00000   0.00000   0.00000
           D2           0.00000   0.00000   0.00000   0.00000   0.00000
           D3           0.00000   0.00000   0.00000   0.00000   0.00000
           D4           0.00000   0.00000   0.00000   0.00000   0.00000
                          A1        A2        A3        A4        A5
           A1           0.16000
           A2           0.00000   0.25000
           A3           0.00000   0.00000   0.16000
           A4           0.00000   0.00000   0.00000   0.25000
           A5           0.00000   0.00000   0.00000   0.00000   0.25000
           A6           0.00000   0.00000   0.00000   0.00000   0.00000
           D1           0.00000   0.00000   0.00000   0.00000   0.00000
           D2           0.00000   0.00000   0.00000   0.00000   0.00000
           D3           0.00000   0.00000   0.00000   0.00000   0.00000
           D4           0.00000   0.00000   0.00000   0.00000   0.00000
                          A6        D1        D2        D3        D4
           A6           0.25000
           D1           0.00000   0.03039
           D2           0.00000   0.00000   0.03039
           D3           0.00000   0.00000   0.00000   0.03039
           D4           0.00000   0.00000   0.00000   0.00000   0.03039
 ITU=  0
     Eigenvalues ---    0.03039   0.03039   0.03039   0.16000   0.22000
     Eigenvalues ---    0.25000   0.25000   0.30767   0.31978   0.32161
     Eigenvalues ---    0.36132   0.59947
 RFO step:  Lambda=-3.94665143D-04 EMin= 3.03932039D-02
 Linear search not attempted -- first point.
 Iteration  1 RMS(Cart)=  0.00965011 RMS(Int)=  0.00000674
 Iteration  2 RMS(Cart)=  0.00000959 RMS(Int)=  0.00000000
 Iteration  3 RMS(Cart)=  0.00000000 RMS(Int)=  0.00000000
 ClnCor:  largest displacement from symmetrization is 9.18D-13 for atom     2.
 Variable       Old X    -DE/DX   Delta X   Delta X   Delta X     New X
                                 (Linear)    (Quad)   (Total)
    R1        2.50982  -0.00147   0.00000  -0.00245  -0.00245   2.50738
    R2        2.03875  -0.00093   0.00000  -0.00256  -0.00256   2.03620
    R3        3.27884  -0.00620   0.00000  -0.01938  -0.01938   3.25946
    R4        3.30160  -0.00623   0.00000  -0.02021  -0.02021   3.28140
    R5        3.27550  -0.00666   0.00000  -0.02069  -0.02069   3.25481
    A1        2.11379   0.00020   0.00000   0.00066   0.00066   2.11445
    A2        2.17141  -0.00067   0.00000  -0.00302  -0.00302   2.16839
    A3        1.99798   0.00047   0.00000   0.00237   0.00237   2.00035
    A4        2.09408   0.00005   0.00000   0.00019   0.00019   2.09427
    A5        2.17422   0.00041   0.00000   0.00166   0.00166   2.17587
    A6        2.01489  -0.00046   0.00000  -0.00185  -0.00185   2.01304
    D1        0.00000   0.00000   0.00000   0.00000   0.00000   0.00000
    D2        3.14159   0.00000   0.00000   0.00000   0.00000   3.14159
    D3        3.14159   0.00000   0.00000   0.00000   0.00000   3.14159
    D4        0.00000   0.00000   0.00000   0.00000   0.00000   0.00000
         Item               Value     Threshold  Converged?
 Maximum Force            0.006663     0.000450     NO 
 RMS     Force            0.002895     0.000300     NO 
 Maximum Displacement     0.022412     0.001800     NO 
 RMS     Displacement     0.009649     0.001200     NO 
 Predicted change in Energy=-1.975787D-04
 GradGradGradGradGradGradGradGradGradGradGradGradGradGradGradGradGradGrad

                          Input orientation:                          
 ---------------------------------------------------------------------
 Center     Atomic      Atomic             Coordinates (Angstroms)
 Number     Number       Type             X           Y           Z
 ---------------------------------------------------------------------
      1          6           0       -1.036919   -0.390170    0.000000
      2          6           0        0.000182    0.437443    0.000000
      3          1           0       -2.047756   -0.017032    0.000000
      4         17           0       -0.906079   -2.110033    0.000000
      5         17           0       -0.259395    2.154372    0.000000
      6         17           0        1.649550   -0.058692    0.000000
 ---------------------------------------------------------------------
                    Distance matrix (angstroms):
                    1          2          3          4          5
     1  C    0.000000
     2  C    1.326846   0.000000
     3  H    1.077509   2.097760   0.000000
     4  Cl   1.724832   2.703875   2.384131   0.000000
     5  Cl   2.660684   1.736440   2.813047   4.313160   0.000000
     6  Cl   2.706841   1.722372   3.697541   3.277077   2.922622
                    6
     6  Cl   0.000000
 Stoichiometry    C2HCl3
 Framework group  CS[SG(C2HCl3)]
 Deg. of freedom     9
 Full point group                 CS      NOp   2
 Largest Abelian subgroup         CS      NOp   2
 Largest concise Abelian subgroup C1      NOp   1
                         Standard orientation:                         
 ---------------------------------------------------------------------
 Center     Atomic      Atomic             Coordinates (Angstroms)
 Number     Number       Type             X           Y           Z
 ---------------------------------------------------------------------
      1          6           0       -1.035605   -0.392394    0.000000
      2          6           0        0.000000    0.437091    0.000000
      3          1           0       -2.047114   -0.021081    0.000000
      4         17           0       -0.901660   -2.112017    0.000000
      5         17           0       -0.262675    2.153548    0.000000
      6         17           0        1.650261   -0.056066    0.000000
 ---------------------------------------------------------------------
 Rotational constants (GHZ):           3.8624672           1.5100044           1.0855976
 Basis read from rwf:  (5D, 7F)
 There are   140 symmetry adapted cartesian basis functions of A'  symmetry.
 There are    62 symmetry adapted cartesian basis functions of A"  symmetry.
 There are   119 symmetry adapted basis functions of A'  symmetry.
 There are    57 symmetry adapted basis functions of A"  symmetry.
   176 basis functions,   330 primitive gaussians,   202 cartesian basis functions
    32 alpha electrons       32 beta electrons
       nuclear repulsion energy       316.5792341260 Hartrees.
 NAtoms=    6 NActive=    6 NUniq=    6 SFac= 1.00D+00 NAtFMM=   60 NAOKFM=F Big=F
 Integral buffers will be    131072 words long.
 Raffenetti 2 integral format.
 Two-electron integral symmetry is turned on.
 One-electron integrals computed using PRISM.
 NBasis=   176 RedAO= T EigKep=  4.08D-04  NBF=   119    57
 NBsUse=   176 1.00D-06 EigRej= -1.00D+00 NBFU=   119    57
 Initial guess from the checkpoint file:  "/wrk/irikura/Gau-9697.chk"
 B after Tr=    -0.000000   -0.000000   -0.000000
         Rot=    1.000000   -0.000000    0.000000   -0.000871 Ang=  -0.10 deg.
 Initial guess orbital symmetries:
       Occupied  (A') (A') (A') (A') (A') (A') (A') (A') (A') (A')
                 (A') (A") (A") (A') (A') (A") (A') (A') (A') (A')
                 (A') (A') (A') (A') (A") (A') (A") (A') (A") (A')
                 (A') (A")
       Virtual   (A") (A') (A') (A') (A') (A') (A') (A") (A') (A')
                 (A") (A') (A') (A') (A') (A') (A") (A') (A') (A")
                 (A') (A") (A') (A") (A') (A") (A') (A") (A") (A")
                 (A') (A") (A') (A') (A') (A') (A') (A') (A') (A")
                 (A') (A') (A') (A") (A') (A') (A") (A') (A') (A')
                 (A") (A") (A") (A') (A') (A") (A') (A') (A') (A')
                 (A') (A') (A") (A") (A') (A') (A") (A') (A") (A")
                 (A') (A') (A') (A") (A') (A") (A') (A") (A') (A")
                 (A") (A') (A') (A') (A") (A') (A") (A') (A') (A')
                 (A') (A') (A') (A") (A") (A') (A') (A") (A") (A')
                 (A") (A') (A") (A') (A') (A") (A') (A') (A") (A')
                 (A') (A') (A") (A") (A') (A") (A') (A") (A') (A')
                 (A') (A") (A") (A") (A') (A") (A') (A") (A') (A')
                 (A') (A") (A') (A') (A') (A") (A') (A') (A') (A')
                 (A') (A') (A') (A')
 ExpMin= 7.42D-02 ExpMax= 1.54D+05 ExpMxC= 1.49D+03 IAcc=3 IRadAn=         5 AccDes= 0.00D+00
 Harris functional with IExCor=  402 and IRadAn=       5 diagonalized for initial guess.
 HarFok:  IExCor=  402 AccDes= 0.00D+00 IRadAn=         5 IDoV= 1 UseB2=F ITyADJ=14
 ICtDFT=  3500011 ScaDFX=  1.000000  1.000000  1.000000  1.000000
 FoFCou: FMM=F IPFlag=           0 FMFlag=      100000 FMFlg1=           0
         NFxFlg=           0 DoJE=T BraDBF=F KetDBF=T FulRan=T
         wScrn=  0.000000 ICntrl=       500 IOpCl=  0 I1Cent=   200000004 NGrid=           0
         NMat0=    1 NMatS0=      1 NMatT0=    0 NMatD0=    1 NMtDS0=    0 NMtDT0=    0
 Petite list used in FoFCou.
 Keep R1 ints in memory in symmetry-blocked form, NReq=183019392.
 Requested convergence on RMS density matrix=1.00D-08 within 128 cycles.
 Requested convergence on MAX density matrix=1.00D-06.
 Requested convergence on             energy=1.00D-06.
 No special actions if energy rises.
 Integral accuracy reduced to 1.0D-05 until final iterations.
 Initial convergence to 1.0D-05 achieved.  Increase integral accuracy.
 SCF Done:  E(RB3LYP) =  -1457.52161089     A.U. after   10 cycles
            NFock= 10  Conv=0.95D-08     -V/T= 2.0010
 Calling FoFJK, ICntrl=      2127 FMM=F ISym2X=1 I1Cent= 0 IOpClX= 0 NMat=1 NMatS=1 NMatT=0.
 ***** Axes restored to original set *****
 -------------------------------------------------------------------
 Center     Atomic                   Forces (Hartrees/Bohr)
 Number     Number              X              Y              Z
 -------------------------------------------------------------------
      1        6          -0.000890563   -0.002959716   -0.000000000
      2        6           0.002139187    0.002049318   -0.000000000
      3        1           0.000064718    0.000378824   -0.000000000
      4       17          -0.000134681    0.001267267   -0.000000000
      5       17           0.000008844   -0.000895065   -0.000000000
      6       17          -0.001187504    0.000159371   -0.000000000
 -------------------------------------------------------------------
 Cartesian Forces:  Max     0.002959716 RMS     0.001113988

 GradGradGradGradGradGradGradGradGradGradGradGradGradGradGradGradGradGrad
 Berny optimization.
 Using GEDIIS/GDIIS optimizer.
 FormGI is forming the generalized inverse of G from B-inverse, IUseBI=4.
 Internal  Forces:  Max     0.001569890 RMS     0.000679855
 Search for a local minimum.
 Step number   2 out of a maximum of   25
 All quantities printed in internal units (Hartrees-Bohrs-Radians)
 Mixed Optimization -- En-DIIS/RFO-DIIS
 Update second derivatives using D2CorX and points    1    2
 DE= -2.29D-04 DEPred=-1.98D-04 R= 1.16D+00
 TightC=F SS=  1.41D+00  RLast= 3.53D-02 DXNew= 5.0454D-01 1.0589D-01
 Trust test= 1.16D+00 RLast= 3.53D-02 DXMaxT set to 3.00D-01
 The second derivative matrix:
                          R1        R2        R3        R4        R5
           R1           0.62166
           R2           0.00562   0.36212
           R3           0.02184   0.00018   0.29526
           R4           0.02549   0.00135  -0.01881   0.29507
           R5           0.02514   0.00074  -0.02362  -0.01726   0.29926
           A1          -0.00641  -0.00198  -0.00939  -0.01030  -0.01049
           A2           0.00630   0.00121   0.00291   0.00410   0.00368
           A3          -0.00091   0.00013   0.00219   0.00190   0.00222
           A4          -0.00093  -0.00025  -0.00105  -0.00119  -0.00119
           A5          -0.00468  -0.00107  -0.00359  -0.00441  -0.00423
           A6           0.00561   0.00132   0.00464   0.00560   0.00543
           D1           0.00000   0.00000   0.00000   0.00000   0.00000
           D2          -0.00000  -0.00000  -0.00000  -0.00000  -0.00000
           D3          -0.00000  -0.00000  -0.00000  -0.00000  -0.00000
           D4          -0.00000  -0.00000  -0.00000  -0.00000  -0.00000
                          A1        A2        A3        A4        A5
           A1           0.16164
           A2          -0.00204   0.25155
           A3           0.00047  -0.00004   0.15983
           A4           0.00026  -0.00027   0.00005   0.25004
           A5           0.00142  -0.00126   0.00012   0.00020   0.25096
           A6          -0.00168   0.00153  -0.00017  -0.00024  -0.00116
           D1          -0.00000   0.00000  -0.00000  -0.00000  -0.00000
           D2           0.00000  -0.00000   0.00000   0.00000   0.00000
           D3           0.00000  -0.00000   0.00000   0.00000   0.00000
           D4           0.00000  -0.00000   0.00000   0.00000   0.00000
                          A6        D1        D2        D3        D4
           A6           0.25140
           D1           0.00000   0.03039
           D2          -0.00000  -0.00000   0.03039
           D3          -0.00000  -0.00000   0.00000   0.03039
           D4          -0.00000  -0.00000   0.00000   0.00000   0.03039
 ITU=  1  0
 Use linear search instead of GDIIS.
     Eigenvalues ---    0.03039   0.03039   0.03039   0.15800   0.21978
     Eigenvalues ---    0.24328   0.25000   0.26574   0.31200   0.32095
     Eigenvalues ---    0.36207   0.62705
 RFO step:  Lambda=-1.38673232D-05 EMin= 3.03932039D-02
 Quartic linear search produced a step of  0.17761.
 Iteration  1 RMS(Cart)=  0.00206681 RMS(Int)=  0.00000235
 Iteration  2 RMS(Cart)=  0.00000234 RMS(Int)=  0.00000000
 Iteration  3 RMS(Cart)=  0.00000000 RMS(Int)=  0.00000000
 ClnCor:  largest displacement from symmetrization is 4.93D-13 for atom     2.
 Variable       Old X    -DE/DX   Delta X   Delta X   Delta X     New X
                                 (Linear)    (Quad)   (Total)
    R1        2.50738   0.00157  -0.00043   0.00344   0.00300   2.51038
    R2        2.03620   0.00007  -0.00045   0.00060   0.00015   2.03634
    R3        3.25946  -0.00127  -0.00344  -0.00184  -0.00528   3.25418
    R4        3.28140  -0.00089  -0.00359  -0.00041  -0.00400   3.27739
    R5        3.25481  -0.00118  -0.00368  -0.00129  -0.00496   3.24985
    A1        2.11445  -0.00055   0.00012  -0.00381  -0.00370   2.11075
    A2        2.16839   0.00033  -0.00054   0.00224   0.00171   2.17010
    A3        2.00035   0.00022   0.00042   0.00157   0.00199   2.00234
    A4        2.09427  -0.00007   0.00003  -0.00038  -0.00034   2.09393
    A5        2.17587  -0.00027   0.00029  -0.00151  -0.00122   2.17466
    A6        2.01304   0.00034  -0.00033   0.00189   0.00156   2.01460
    D1        0.00000   0.00000   0.00000   0.00000   0.00000   0.00000
    D2        3.14159   0.00000   0.00000  -0.00000   0.00000   3.14159
    D3        3.14159   0.00000   0.00000  -0.00000   0.00000   3.14159
    D4        0.00000  -0.00000   0.00000  -0.00000   0.00000   0.00000
         Item               Value     Threshold  Converged?
 Maximum Force            0.001570     0.000450     NO 
 RMS     Force            0.000680     0.000300     NO 
 Maximum Displacement     0.003776     0.001800     NO 
 RMS     Displacement     0.002067     0.001200     NO 
 Predicted change in Energy=-1.259650D-05
 GradGradGradGradGradGradGradGradGradGradGradGradGradGradGradGradGradGrad

                          Input orientation:                          
 ---------------------------------------------------------------------
 Center     Atomic      Atomic             Coordinates (Angstroms)
 Number     Number       Type             X           Y           Z
 ---------------------------------------------------------------------
      1          6           0       -1.036281   -0.391743    0.000000
      2          6           0        0.001243    0.437886    0.000000
      3          1           0       -2.046178   -0.015841    0.000000
      4         17           0       -0.906888   -2.108914    0.000000
      5         17           0       -0.260295    2.152374    0.000000
      6         17           0        1.647982   -0.057873    0.000000
 ---------------------------------------------------------------------
                    Distance matrix (angstroms):
                    1          2          3          4          5
     1  C    0.000000
     2  C    1.328436   0.000000
     3  H    1.077587   2.097094   0.000000
     4  Cl   1.722039   2.703866   2.383052   0.000000
     5  Cl   2.659829   1.734322   2.809010   4.310065   0.000000
     6  Cl   2.704947   1.719745   3.694399   3.276298   2.920053
                    6
     6  Cl   0.000000
 Stoichiometry    C2HCl3
 Framework group  CS[SG(C2HCl3)]
 Deg. of freedom     9
 Full point group                 CS      NOp   2
 Largest Abelian subgroup         CS      NOp   2
 Largest concise Abelian subgroup C1      NOp   1
                         Standard orientation:                         
 ---------------------------------------------------------------------
 Center     Atomic      Atomic             Coordinates (Angstroms)
 Number     Number       Type             X           Y           Z
 ---------------------------------------------------------------------
      1          6           0       -1.032697   -0.397988    0.000000
      2          6           0        0.000000    0.437643    0.000000
      3          1           0       -2.044756   -0.027947    0.000000
      4         17           0       -0.893350   -2.114379    0.000000
      5         17           0       -0.271474    2.150586    0.000000
      6         17           0        1.649585   -0.048559    0.000000
 ---------------------------------------------------------------------
 Rotational constants (GHZ):           3.8675856           1.5118512           1.0869565
 Basis read from rwf:  (5D, 7F)
 There are   140 symmetry adapted cartesian basis functions of A'  symmetry.
 There are    62 symmetry adapted cartesian basis functions of A"  symmetry.
 There are   119 symmetry adapted basis functions of A'  symmetry.
 There are    57 symmetry adapted basis functions of A"  symmetry.
   176 basis functions,   330 primitive gaussians,   202 cartesian basis functions
    32 alpha electrons       32 beta electrons
       nuclear repulsion energy       316.8104408495 Hartrees.
 NAtoms=    6 NActive=    6 NUniq=    6 SFac= 1.00D+00 NAtFMM=   60 NAOKFM=F Big=F
 Integral buffers will be    131072 words long.
 Raffenetti 2 integral format.
 Two-electron integral symmetry is turned on.
 One-electron integrals computed using PRISM.
 NBasis=   176 RedAO= T EigKep=  4.10D-04  NBF=   119    57
 NBsUse=   176 1.00D-06 EigRej= -1.00D+00 NBFU=   119    57
 Initial guess from the checkpoint file:  "/wrk/irikura/Gau-9697.chk"
 B after Tr=     0.000000    0.000000    0.000000
         Rot=    0.999998    0.000000    0.000000   -0.002047 Ang=  -0.23 deg.
 Initial guess orbital symmetries:
       Occupied  (A') (A') (A') (A') (A') (A') (A') (A') (A') (A')
                 (A') (A") (A') (A") (A') (A") (A') (A') (A') (A')
                 (A') (A') (A') (A') (A") (A') (A") (A') (A") (A')
                 (A') (A")
       Virtual   (A") (A') (A') (A') (A') (A') (A') (A") (A') (A')
                 (A") (A') (A') (A') (A') (A") (A') (A') (A') (A")
                 (A') (A") (A') (A") (A') (A") (A') (A") (A") (A")
                 (A') (A") (A') (A') (A') (A') (A') (A') (A') (A")
                 (A') (A') (A') (A") (A') (A') (A") (A') (A') (A')
                 (A") (A") (A") (A') (A') (A") (A') (A') (A') (A')
                 (A') (A') (A") (A") (A') (A') (A") (A') (A") (A")
                 (A') (A') (A') (A") (A') (A") (A') (A") (A') (A")
                 (A") (A') (A') (A') (A") (A') (A") (A') (A') (A')
                 (A') (A') (A') (A") (A") (A') (A') (A") (A") (A')
                 (A") (A') (A") (A') (A') (A") (A') (A') (A") (A')
                 (A') (A') (A") (A") (A') (A") (A') (A") (A') (A')
                 (A') (A") (A") (A") (A') (A") (A') (A") (A') (A')
                 (A') (A") (A') (A') (A') (A") (A') (A') (A') (A')
                 (A') (A') (A') (A')
 Keep R1 ints in memory in symmetry-blocked form, NReq=183019392.
 Requested convergence on RMS density matrix=1.00D-08 within 128 cycles.
 Requested convergence on MAX density matrix=1.00D-06.
 Requested convergence on             energy=1.00D-06.
 No special actions if energy rises.
 SCF Done:  E(RB3LYP) =  -1457.52162470     A.U. after    9 cycles
            NFock=  9  Conv=0.26D-08     -V/T= 2.0010
 Calling FoFJK, ICntrl=      2127 FMM=F ISym2X=1 I1Cent= 0 IOpClX= 0 NMat=1 NMatS=1 NMatT=0.
 ***** Axes restored to original set *****
 -------------------------------------------------------------------
 Center     Atomic                   Forces (Hartrees/Bohr)
 Number     Number              X              Y              Z
 -------------------------------------------------------------------
      1        6          -0.000056997   -0.000703179   -0.000000000
      2        6           0.000087482    0.000380509   -0.000000000
      3        1          -0.000001080    0.000209953   -0.000000000
      4       17          -0.000002624    0.000213910   -0.000000000
      5       17          -0.000086323    0.000041145   -0.000000000
      6       17           0.000059542   -0.000142337   -0.000000000
 -------------------------------------------------------------------
 Cartesian Forces:  Max     0.000703179 RMS     0.000207223

 GradGradGradGradGradGradGradGradGradGradGradGradGradGradGradGradGradGrad
 Berny optimization.
 Using GEDIIS/GDIIS optimizer.
 FormGI is forming the generalized inverse of G from B-inverse, IUseBI=4.
 Internal  Forces:  Max     0.000247853 RMS     0.000137119
 Search for a local minimum.
 Step number   3 out of a maximum of   25
 All quantities printed in internal units (Hartrees-Bohrs-Radians)
 Mixed Optimization -- En-DIIS/RFO-DIIS
 Swapping is turned off.
 Update second derivatives using D2CorX and points    1    2    3
 DE= -1.38D-05 DEPred=-1.26D-05 R= 1.10D+00
 TightC=F SS=  1.41D+00  RLast= 1.01D-02 DXNew= 5.0454D-01 3.0318D-02
 Trust test= 1.10D+00 RLast= 1.01D-02 DXMaxT set to 3.00D-01
 The second derivative matrix:
                          R1        R2        R3        R4        R5
           R1           0.60533
           R2           0.00180   0.36225
           R3           0.03591   0.00428   0.28304
           R4           0.02543   0.00504  -0.01630   0.30814
           R5           0.02415   0.00550  -0.01927   0.00046   0.32316
           A1           0.00378  -0.00108  -0.01948  -0.01572  -0.01719
           A2          -0.00336   0.00057   0.01263   0.00996   0.01100
           A3          -0.01223  -0.00020   0.01407   0.01043   0.01299
           A4           0.00174  -0.00018  -0.00383  -0.00320  -0.00373
           A5           0.00420  -0.00079  -0.01280  -0.01094  -0.01251
           A6          -0.00594   0.00096   0.01663   0.01414   0.01624
           D1           0.00000   0.00000  -0.00000  -0.00000  -0.00000
           D2           0.00000  -0.00000  -0.00000  -0.00000  -0.00000
           D3           0.00000  -0.00000  -0.00000  -0.00000  -0.00000
           D4          -0.00000  -0.00000   0.00000   0.00000   0.00000
                          A1        A2        A3        A4        A5
           A1           0.15742
           A2           0.00167   0.24835
           A3           0.00422  -0.00313   0.15713
           A4          -0.00062   0.00045   0.00067   0.24990
           A5          -0.00154   0.00120   0.00227  -0.00030   0.24925
           A6           0.00216  -0.00164  -0.00294   0.00040   0.00104
           D1          -0.00000   0.00000   0.00000  -0.00000  -0.00000
           D2          -0.00000   0.00000   0.00000   0.00000   0.00000
           D3          -0.00000   0.00000   0.00000   0.00000   0.00000
           D4           0.00000  -0.00000  -0.00000   0.00000   0.00000
                          A6        D1        D2        D3        D4
           A6           0.24856
           D1           0.00000   0.03039
           D2          -0.00000   0.00000   0.03039
           D3          -0.00000   0.00000   0.00000   0.03039
           D4          -0.00000  -0.00000  -0.00000  -0.00000   0.03039
 ITU=  1  1  0
     Eigenvalues ---    0.03039   0.03039   0.03039   0.13838   0.21318
     Eigenvalues ---    0.23411   0.25001   0.29280   0.31210   0.33572
     Eigenvalues ---    0.36381   0.61295
 En-DIIS/RFO-DIIS/Sim-DIIS IScMMF=       -3 using points:     3    2
 RFO step:  Lambda=-1.38277831D-06.
 DidBck=F Rises=F RFO-DIIS coefs:    1.20410   -0.20410
 Iteration  1 RMS(Cart)=  0.00082124 RMS(Int)=  0.00000053
 Iteration  2 RMS(Cart)=  0.00000051 RMS(Int)=  0.00000000
 ClnCor:  largest displacement from symmetrization is 1.43D-13 for atom     2.
 Variable       Old X    -DE/DX   Delta X   Delta X   Delta X     New X
                                 (Linear)    (Quad)   (Total)
    R1        2.51038   0.00022   0.00061  -0.00012   0.00050   2.51088
    R2        2.03634   0.00007   0.00003   0.00018   0.00021   2.03655
    R3        3.25418  -0.00021  -0.00108  -0.00006  -0.00113   3.25305
    R4        3.27739   0.00005  -0.00082   0.00066  -0.00015   3.27724
    R5        3.24985   0.00010  -0.00101   0.00096  -0.00005   3.24980
    A1        2.11075  -0.00025  -0.00075  -0.00101  -0.00177   2.10898
    A2        2.17010   0.00010   0.00035   0.00019   0.00053   2.17063
    A3        2.00234   0.00015   0.00041   0.00083   0.00123   2.00357
    A4        2.09393  -0.00005  -0.00007  -0.00017  -0.00024   2.09369
    A5        2.17466  -0.00017  -0.00025  -0.00052  -0.00077   2.17389
    A6        2.01460   0.00022   0.00032   0.00069   0.00100   2.01560
    D1        0.00000   0.00000   0.00000   0.00000   0.00000   0.00000
    D2        3.14159   0.00000   0.00000  -0.00000   0.00000   3.14159
    D3        3.14159  -0.00000   0.00000  -0.00000   0.00000   3.14159
    D4        0.00000  -0.00000   0.00000  -0.00000   0.00000   0.00000
         Item               Value     Threshold  Converged?
 Maximum Force            0.000248     0.000450     YES
 RMS     Force            0.000137     0.000300     YES
 Maximum Displacement     0.001852     0.001800     NO 
 RMS     Displacement     0.000821     0.001200     YES
 Predicted change in Energy=-6.913942D-07
 GradGradGradGradGradGradGradGradGradGradGradGradGradGradGradGradGradGrad

                          Input orientation:                          
 ---------------------------------------------------------------------
 Center     Atomic      Atomic             Coordinates (Angstroms)
 Number     Number       Type             X           Y           Z
 ---------------------------------------------------------------------
      1          6           0       -1.036021   -0.392234    0.000000
      2          6           0        0.001365    0.437988    0.000000
      3          1           0       -2.045511   -0.014927    0.000000
      4         17           0       -0.906878   -2.108822    0.000000
      5         17           0       -0.261275    2.152226    0.000000
      6         17           0        1.647903   -0.058344    0.000000
 ---------------------------------------------------------------------
                    Distance matrix (angstroms):
                    1          2          3          4          5
     1  C    0.000000
     2  C    1.328698   0.000000
     3  H    1.077697   2.096386   0.000000
     4  Cl   1.721439   2.703914   2.383460   0.000000
     5  Cl   2.659795   1.734241   2.807143   4.309679   0.000000
     6  Cl   2.704612   1.719718   3.693669   3.275876   2.920887
                    6
     6  Cl   0.000000
 Stoichiometry    C2HCl3
 Framework group  CS[SG(C2HCl3)]
 Deg. of freedom     9
 Full point group                 CS      NOp   2
 Largest Abelian subgroup         CS      NOp   2
 Largest concise Abelian subgroup C1      NOp   1
                         Standard orientation:                         
 ---------------------------------------------------------------------
 Center     Atomic      Atomic             Coordinates (Angstroms)
 Number     Number       Type             X           Y           Z
 ---------------------------------------------------------------------
      1          6           0       -1.031881   -0.399145    0.000000
      2          6           0        0.000000    0.437910    0.000000
      3          1           0       -2.043841   -0.028513    0.000000
      4         17           0       -0.891405   -2.114843    0.000000
      5         17           0       -0.273955    2.150376    0.000000
      6         17           0        1.649779   -0.047538    0.000000
 ---------------------------------------------------------------------
 Rotational constants (GHZ):           3.8662298           1.5121862           1.0870225
 Basis read from rwf:  (5D, 7F)
 There are   140 symmetry adapted cartesian basis functions of A'  symmetry.
 There are    62 symmetry adapted cartesian basis functions of A"  symmetry.
 There are   119 symmetry adapted basis functions of A'  symmetry.
 There are    57 symmetry adapted basis functions of A"  symmetry.
   176 basis functions,   330 primitive gaussians,   202 cartesian basis functions
    32 alpha electrons       32 beta electrons
       nuclear repulsion energy       316.8192726502 Hartrees.
 NAtoms=    6 NActive=    6 NUniq=    6 SFac= 1.00D+00 NAtFMM=   60 NAOKFM=F Big=F
 Integral buffers will be    131072 words long.
 Raffenetti 2 integral format.
 Two-electron integral symmetry is turned on.
 One-electron integrals computed using PRISM.
 NBasis=   176 RedAO= T EigKep=  4.10D-04  NBF=   119    57
 NBsUse=   176 1.00D-06 EigRej= -1.00D+00 NBFU=   119    57
 Initial guess from the checkpoint file:  "/wrk/irikura/Gau-9697.chk"
 B after Tr=    -0.000000    0.000000    0.000000
         Rot=    1.000000   -0.000000   -0.000000   -0.000455 Ang=  -0.05 deg.
 Initial guess orbital symmetries:
       Occupied  (A') (A') (A') (A') (A') (A') (A') (A') (A') (A')
                 (A') (A") (A') (A") (A') (A") (A') (A') (A') (A')
                 (A') (A') (A') (A') (A") (A') (A") (A') (A") (A')
                 (A') (A")
       Virtual   (A") (A') (A') (A') (A') (A') (A') (A") (A') (A')
                 (A") (A') (A') (A') (A') (A") (A') (A') (A') (A")
                 (A') (A") (A') (A") (A') (A") (A') (A") (A") (A")
                 (A') (A") (A') (A') (A') (A') (A') (A') (A') (A")
                 (A') (A') (A') (A") (A') (A') (A") (A') (A') (A')
                 (A") (A") (A") (A') (A') (A") (A') (A') (A') (A')
                 (A') (A') (A") (A") (A') (A') (A") (A') (A") (A")
                 (A') (A') (A') (A") (A") (A') (A') (A") (A') (A")
                 (A") (A') (A') (A') (A") (A') (A") (A') (A') (A')
                 (A') (A') (A') (A") (A") (A') (A') (A") (A") (A')
                 (A") (A') (A") (A') (A') (A") (A') (A') (A") (A')
                 (A') (A') (A") (A") (A') (A") (A') (A") (A') (A')
                 (A') (A") (A") (A") (A') (A") (A') (A") (A') (A')
                 (A') (A") (A') (A') (A') (A") (A') (A') (A') (A')
                 (A') (A') (A') (A')
 Keep R1 ints in memory in symmetry-blocked form, NReq=183019392.
 Requested convergence on RMS density matrix=1.00D-08 within 128 cycles.
 Requested convergence on MAX density matrix=1.00D-06.
 Requested convergence on             energy=1.00D-06.
 No special actions if energy rises.
 SCF Done:  E(RB3LYP) =  -1457.52162549     A.U. after    7 cycles
            NFock=  7  Conv=0.70D-08     -V/T= 2.0010
 Calling FoFJK, ICntrl=      2127 FMM=F ISym2X=1 I1Cent= 0 IOpClX= 0 NMat=1 NMatS=1 NMatT=0.
 ***** Axes restored to original set *****
 -------------------------------------------------------------------
 Center     Atomic                   Forces (Hartrees/Bohr)
 Number     Number              X              Y              Z
 -------------------------------------------------------------------
      1        6           0.000017300   -0.000153775   -0.000000000
      2        6          -0.000109264    0.000064710   -0.000000000
      3        1          -0.000003550    0.000056406   -0.000000000
      4       17          -0.000008153    0.000033993   -0.000000000
      5       17          -0.000002497    0.000040327   -0.000000000
      6       17           0.000106164   -0.000041661   -0.000000000
 -------------------------------------------------------------------
 Cartesian Forces:  Max     0.000153775 RMS     0.000057314

 GradGradGradGradGradGradGradGradGradGradGradGradGradGradGradGradGradGrad
 Berny optimization.
 Using GEDIIS/GDIIS optimizer.
 FormGI is forming the generalized inverse of G from B-inverse, IUseBI=4.
 Internal  Forces:  Max     0.000113132 RMS     0.000041320
 Search for a local minimum.
 Step number   4 out of a maximum of   25
 All quantities printed in internal units (Hartrees-Bohrs-Radians)
 Mixed Optimization -- En-DIIS/RFO-DIIS
 Swapping is turned off.
 Update second derivatives using D2CorX and points    1    2    3    4
 DE= -7.92D-07 DEPred=-6.91D-07 R= 1.15D+00
 Trust test= 1.15D+00 RLast= 2.86D-03 DXMaxT set to 3.00D-01
 The second derivative matrix:
                          R1        R2        R3        R4        R5
           R1           0.60905
           R2          -0.00191   0.36053
           R3           0.04033   0.00682   0.27495
           R4           0.01589   0.00204  -0.01449   0.30191
           R5          -0.00112  -0.00076  -0.00549  -0.00539   0.31949
           A1           0.01281   0.00354  -0.02967  -0.00957   0.00041
           A2          -0.01214  -0.00273   0.01848   0.00516   0.00166
           A3          -0.02110  -0.00340   0.01748   0.00459   0.00042
           A4          -0.00041  -0.00009  -0.00100  -0.00086   0.00185
           A5           0.00693   0.00160  -0.01345  -0.00469   0.00232
           A6          -0.00653  -0.00150   0.01445   0.00555  -0.00417
           D1           0.00000   0.00000  -0.00000  -0.00000  -0.00000
           D2           0.00000   0.00000  -0.00000  -0.00000  -0.00000
           D3          -0.00000  -0.00000   0.00000  -0.00000  -0.00000
           D4          -0.00000  -0.00000   0.00000   0.00000   0.00000
                          A1        A2        A3        A4        A5
           A1           0.14321
           A2           0.01085   0.24238
           A3           0.01299  -0.00936   0.15275
           A4           0.00001   0.00125  -0.00001   0.25130
           A5          -0.00737   0.00655   0.00552   0.00146   0.24837
           A6           0.00736  -0.00779  -0.00551  -0.00276   0.00017
           D1          -0.00000   0.00000   0.00000  -0.00000  -0.00000
           D2          -0.00000   0.00000   0.00000  -0.00000  -0.00000
           D3           0.00000  -0.00000  -0.00000   0.00000   0.00000
           D4           0.00000  -0.00000  -0.00000   0.00000   0.00000
                          A6        D1        D2        D3        D4
           A6           0.25259
           D1           0.00000   0.03039
           D2           0.00000   0.00000   0.03039
           D3          -0.00000  -0.00000  -0.00000   0.03039
           D4          -0.00000  -0.00000  -0.00000   0.00000   0.03039
 ITU=  0  1  1  0
     Eigenvalues ---    0.03039   0.03039   0.03039   0.11652   0.21117
     Eigenvalues ---    0.24645   0.25346   0.28340   0.30803   0.32183
     Eigenvalues ---    0.36114   0.61544
 En-DIIS/RFO-DIIS/Sim-DIIS IScMMF=       -3 using points:     4    3    2
 RFO step:  Lambda=-1.23296891D-07.
 DidBck=F Rises=F RFO-DIIS coefs:    1.35957   -0.40060    0.04103
 Iteration  1 RMS(Cart)=  0.00024965 RMS(Int)=  0.00000006
 Iteration  2 RMS(Cart)=  0.00000005 RMS(Int)=  0.00000000
 ClnCor:  largest displacement from symmetrization is 6.57D-14 for atom     2.
 Variable       Old X    -DE/DX   Delta X   Delta X   Delta X     New X
                                 (Linear)    (Quad)   (Total)
    R1        2.51088   0.00003   0.00006   0.00004   0.00010   2.51097
    R2        2.03655   0.00002   0.00007   0.00001   0.00008   2.03663
    R3        3.25305  -0.00003  -0.00019  -0.00005  -0.00025   3.25280
    R4        3.27724   0.00004   0.00011  -0.00001   0.00010   3.27734
    R5        3.24980   0.00011   0.00019   0.00020   0.00039   3.25018
    A1        2.10898  -0.00007  -0.00048  -0.00013  -0.00061   2.10838
    A2        2.17063   0.00004   0.00012   0.00014   0.00027   2.17090
    A3        2.00357   0.00003   0.00036  -0.00002   0.00034   2.00391
    A4        2.09369   0.00001  -0.00007   0.00012   0.00005   2.09375
    A5        2.17389  -0.00002  -0.00023   0.00011  -0.00011   2.17378
    A6        2.01560   0.00001   0.00030  -0.00024   0.00006   2.01566
    D1        0.00000  -0.00000   0.00000  -0.00000   0.00000   0.00000
    D2        3.14159   0.00000   0.00000  -0.00000   0.00000   3.14159
    D3        3.14159   0.00000   0.00000   0.00000   0.00000   3.14159
    D4        0.00000  -0.00000   0.00000   0.00000   0.00000   0.00000
         Item               Value     Threshold  Converged?
 Maximum Force            0.000113     0.000450     YES
 RMS     Force            0.000041     0.000300     YES
 Maximum Displacement     0.000505     0.001800     YES
 RMS     Displacement     0.000250     0.001200     YES
 Predicted change in Energy=-6.133449D-08
 Optimization completed.
    -- Stationary point found.
                           ----------------------------
                           !   Optimized Parameters   !
                           ! (Angstroms and Degrees)  !
 --------------------------                            --------------------------
 ! Name  Definition              Value          Derivative Info.                !
 --------------------------------------------------------------------------------
 ! R1    R(1,2)                  1.3287         -DE/DX =    0.0                 !
 ! R2    R(1,3)                  1.0777         -DE/DX =    0.0                 !
 ! R3    R(1,4)                  1.7214         -DE/DX =    0.0                 !
 ! R4    R(2,5)                  1.7342         -DE/DX =    0.0                 !
 ! R5    R(2,6)                  1.7197         -DE/DX =    0.0001              !
 ! A1    A(2,1,3)              120.8359         -DE/DX =   -0.0001              !
 ! A2    A(2,1,4)              124.368          -DE/DX =    0.0                 !
 ! A3    A(3,1,4)              114.7961         -DE/DX =    0.0                 !
 ! A4    A(1,2,5)              119.9597         -DE/DX =    0.0                 !
 ! A5    A(1,2,6)              124.5547         -DE/DX =    0.0                 !
 ! A6    A(5,2,6)              115.4855         -DE/DX =    0.0                 !
 ! D1    D(3,1,2,5)              0.0            -DE/DX =    0.0                 !
 ! D2    D(3,1,2,6)            180.0            -DE/DX =    0.0                 !
 ! D3    D(4,1,2,5)            180.0            -DE/DX =    0.0                 !
 ! D4    D(4,1,2,6)              0.0            -DE/DX =    0.0                 !
 --------------------------------------------------------------------------------
 GradGradGradGradGradGradGradGradGradGradGradGradGradGradGradGradGradGrad

                          Input orientation:                          
 ---------------------------------------------------------------------
 Center     Atomic      Atomic             Coordinates (Angstroms)
 Number     Number       Type             X           Y           Z
 ---------------------------------------------------------------------
      1          6           0       -1.036021   -0.392234    0.000000
      2          6           0        0.001365    0.437988    0.000000
      3          1           0       -2.045511   -0.014927    0.000000
      4         17           0       -0.906878   -2.108822    0.000000
      5         17           0       -0.261275    2.152226    0.000000
      6         17           0        1.647903   -0.058344    0.000000
 ---------------------------------------------------------------------
                    Distance matrix (angstroms):
                    1          2          3          4          5
     1  C    0.000000
     2  C    1.328698   0.000000
     3  H    1.077697   2.096386   0.000000
     4  Cl   1.721439   2.703914   2.383460   0.000000
     5  Cl   2.659795   1.734241   2.807143   4.309679   0.000000
     6  Cl   2.704612   1.719718   3.693669   3.275876   2.920887
                    6
     6  Cl   0.000000
 Stoichiometry    C2HCl3
 Framework group  CS[SG(C2HCl3)]
 Deg. of freedom     9
 Full point group                 CS      NOp   2
 Largest Abelian subgroup         CS      NOp   2
 Largest concise Abelian subgroup C1      NOp   1
                         Standard orientation:                         
 ---------------------------------------------------------------------
 Center     Atomic      Atomic             Coordinates (Angstroms)
 Number     Number       Type             X           Y           Z
 ---------------------------------------------------------------------
      1          6           0       -1.031881   -0.399145    0.000000
      2          6           0       -0.000000    0.437910    0.000000
      3          1           0       -2.043841   -0.028513    0.000000
      4         17           0       -0.891405   -2.114843    0.000000
      5         17           0       -0.273955    2.150376    0.000000
      6         17           0        1.649779   -0.047538    0.000000
 ---------------------------------------------------------------------
 Rotational constants (GHZ):           3.8662298           1.5121862           1.0870225

 **********************************************************************

[...]
 Red. masses --     26.0291                 4.9999                 9.8649
 Frc consts  --      2.2747                 0.6674                 2.2899
 IR Inten    --      0.1175                 4.8917                15.2796
  Atom  AN      X      Y      Z        X      Y      Z        X      Y      Z
     1   6     0.31  -0.13   0.00     0.00   0.00  -0.22     0.58   0.01  -0.00
     2   6     0.11   0.23  -0.00     0.00   0.00   0.54     0.35   0.15  -0.00
     3   1     0.25  -0.28   0.00     0.00  -0.00  -0.81     0.63   0.12   0.00
     4  17    -0.11  -0.46  -0.00    -0.00  -0.00   0.02    -0.04   0.00  -0.00
     5  17    -0.11   0.63   0.00    -0.00   0.00  -0.04     0.00  -0.10   0.00
     6  17     0.06  -0.20   0.00     0.00  -0.00  -0.07    -0.30   0.04   0.00
                      7                      8                      9
                     A"                     A'                     A'
 Frequencies --    815.7055               829.3427               913.4666
 Red. masses --      1.3244                10.3199                 6.3186
 Frc consts  --      0.5192                 4.1821                 3.1064
 IR Inten    --     24.7486               124.6571               100.3968
  Atom  AN      X      Y      Z        X      Y      Z        X      Y      Z
     1   6    -0.00   0.00  -0.16    -0.16   0.62   0.00     0.18  -0.23   0.00
     2   6    -0.00   0.00   0.06     0.02   0.46  -0.00    -0.36   0.46  -0.00
     3   1    -0.00   0.00   0.99    -0.20   0.51  -0.00    -0.00  -0.74  -0.00
     4  17     0.00  -0.00   0.01     0.03  -0.22  -0.00    -0.03   0.05  -0.00
     5  17    -0.00  -0.00  -0.01    -0.00  -0.15   0.00     0.02  -0.07   0.00
     6  17     0.00  -0.00   0.00     0.03  -0.02  -0.00     0.07  -0.03  -0.00
                     10                     11                     12
                     A'                     A'                     A'
 Frequencies --   1271.9773              1636.9551              3229.0018
 Red. masses --      1.1675                 9.3192                 1.0918
 Frc consts  --      1.1129                14.7131                 6.7073
 IR Inten    --     10.1318                13.6059                13.1535
  Atom  AN      X      Y      Z        X      Y      Z        X      Y      Z
     1   6     0.02  -0.06  -0.00    -0.42  -0.44  -0.00    -0.08   0.02  -0.00
     2   6    -0.10   0.01   0.00     0.49   0.39   0.00     0.00   0.00   0.00
     3   1     0.37   0.92   0.00    -0.20   0.45   0.00     0.94  -0.33   0.00
     4  17     0.01  -0.01   0.00     0.00   0.02   0.00     0.00  -0.00   0.00
     5  17     0.00   0.00  -0.00    -0.00  -0.01  -0.00     0.00  -0.00  -0.00
     6  17     0.01  -0.00  -0.00    -0.02   0.00  -0.00     0.00  -0.00  -0.00

 -------------------
 - Thermochemistry -
 -------------------
 Temperature   298.150 Kelvin.  Pressure   1.00000 Atm.
 Atom     1 has atomic number  6 and mass  12.00000
 Atom     2 has atomic number  6 and mass  12.00000
 Atom     3 has atomic number  1 and mass   1.00783
 Atom     4 has atomic number 17 and mass  34.96885
 Atom     5 has atomic number 17 and mass  34.96885
 Atom     6 has atomic number 17 and mass  34.96885
 Molecular mass:   129.91438 amu.
 Principal axes and moments of inertia in atomic units:
                           1         2         3
     Eigenvalues --   466.796151193.464961660.26112
           X            0.24092   0.97054   0.00000
           Y            0.97054  -0.24092   0.00000
           Z            0.00000  -0.00000   1.00000
 This molecule is an asymmetric top.
 Rotational symmetry number  1.
 Warning -- assumption of classical behavior for rotation
           may cause significant error
 Rotational temperatures (Kelvin)      0.18555     0.07257     0.05217
 Rotational constants (GHZ):           3.86623     1.51219     1.08702
 Zero-point vibrational energy      64817.9 (Joules/Mol)
                                   15.49185 (Kcal/Mol)
 Warning -- explicit consideration of   5 degrees of freedom as
           vibrations may cause significant error
 Vibrational temperatures:    245.95   294.35   397.00   554.12   684.85
          (Kelvin)            903.09  1173.62  1193.24  1314.27  1830.09
                             2355.21  4645.81
 
 Zero-point correction=                           0.024688 (Hartree/Particle)
 Thermal correction to Energy=                    0.030056
 Thermal correction to Enthalpy=                  0.031000
 Thermal correction to Gibbs Free Energy=        -0.005862
 Sum of electronic and zero-point Energies=          -1457.496938
 Sum of electronic and thermal Energies=             -1457.491570
 Sum of electronic and thermal Enthalpies=           -1457.490626
 Sum of electronic and thermal Free Energies=        -1457.527488
 
                     E (Thermal)             CV                S
                      KCal/Mol        Cal/Mol-Kelvin    Cal/Mol-Kelvin
 Total                   18.860             17.089             77.583
 Electronic               0.000              0.000              0.000
 Translational            0.889              2.981             40.498
 Rotational               0.889              2.981             28.316
 Vibrational             17.083             11.128              8.769
 Vibration     1          0.626              1.878              2.425
 Vibration     2          0.640              1.833              2.091
 Vibration     3          0.678              1.718              1.559
 Vibration     4          0.754              1.502              1.019
 Vibration     5          0.833              1.303              0.721
                       Q            Log10(Q)             Ln(Q)
 Total Bot       0.497144D+03          2.696482          6.208879
 Total V=0       0.112743D+15         14.052091         32.356134
 Vib (Bot)       0.248108D-10        -10.605360        -24.419744
 Vib (Bot)    1  0.117855D+01          0.071346          0.164281
 Vib (Bot)    2  0.972918D+00         -0.011924         -0.027456
 Vib (Bot)    3  0.698258D+00         -0.155984         -0.359167
 Vib (Bot)    4  0.467775D+00         -0.329963         -0.759768
 Vib (Bot)    5  0.352566D+00         -0.452760         -1.042518
 Vib (V=0)       0.562663D+01          0.750249          1.727511
 Vib (V=0)    1  0.178022D+01          0.250474          0.576738
 Vib (V=0)    2  0.159388D+01          0.202455          0.466170
 Vib (V=0)    3  0.135882D+01          0.133161          0.306613
 Vib (V=0)    4  0.118470D+01          0.073608          0.169489
 Vib (V=0)    5  0.111180D+01          0.046028          0.105983
 Electronic      0.100000D+01          0.000000          0.000000
 Translational   0.582022D+08          7.764940         17.879434
 Rotational      0.344272D+06          5.536902         12.749189
 ***** Axes restored to original set *****
 -------------------------------------------------------------------
 Center     Atomic                   Forces (Hartrees/Bohr)
 Number     Number              X              Y              Z
 -------------------------------------------------------------------
      1        6           0.000017351   -0.000153807   -0.000000000
      2        6          -0.000109296    0.000064582   -0.000000000
      3        1          -0.000003521    0.000056402   -0.000000000
      4       17          -0.000008165    0.000034081   -0.000000000
      5       17          -0.000002503    0.000040383   -0.000000000
      6       17           0.000106133   -0.000041641   -0.000000000
 -------------------------------------------------------------------
 Cartesian Forces:  Max     0.000153807 RMS     0.000057315
 FormGI is forming the generalized inverse of G from B-inverse, IUseBI=4.

 GradGradGradGradGradGradGradGradGradGradGradGradGradGradGradGradGradGrad
 Berny optimization.
 Internal  Forces:  Max     0.000113096 RMS     0.000041318
 Search for a local minimum.
 Step number   1 out of a maximum of    2
 All quantities printed in internal units (Hartrees-Bohrs-Radians)
 Second derivative matrix not updated -- analytic derivatives used.
 The second derivative matrix:
                          R1        R2        R3        R4        R5
           R1           0.60166
           R2           0.00337   0.36667
           R3           0.02617   0.00553   0.25222
           R4           0.02547  -0.00042   0.00342   0.23280
           R5           0.02489  -0.00084   0.00166   0.02930   0.24407
           A1           0.00396   0.00795  -0.03610  -0.00198   0.00631
           A2           0.02333  -0.00659   0.02347   0.00450  -0.00543
           A3          -0.02729  -0.00136   0.01262  -0.00252  -0.00089
           A4           0.00864  -0.00443   0.00922   0.02982  -0.04127
           A5           0.02196   0.00376  -0.00715  -0.04284   0.02541
           A6          -0.03060   0.00067  -0.00206   0.01301   0.01586
           D1           0.00000   0.00000   0.00000  -0.00000  -0.00000
           D2          -0.00000   0.00000  -0.00000  -0.00000  -0.00000
           D3          -0.00000   0.00000  -0.00000  -0.00000  -0.00000
           D4          -0.00000  -0.00000  -0.00000   0.00000   0.00000
                          A1        A2        A3        A4        A5
           A1           0.08932
           A2          -0.06237   0.12905
           A3          -0.02695  -0.06668   0.09363
           A4           0.00287  -0.00647   0.00360   0.13980
           A5          -0.00416   0.01759  -0.01343  -0.07101   0.14763
           A6           0.00129  -0.01112   0.00982  -0.06879  -0.07662
           D1           0.00000   0.00000  -0.00000   0.00000   0.00000
           D2           0.00000   0.00000  -0.00000   0.00000  -0.00000
           D3           0.00000   0.00000  -0.00000   0.00000  -0.00000
           D4          -0.00000  -0.00000   0.00000  -0.00000  -0.00000
                          A6        D1        D2        D3        D4
           A6           0.14541
           D1          -0.00000   0.02618
           D2          -0.00000   0.00138   0.03241
           D3          -0.00000   0.01113  -0.02102   0.03657
           D4           0.00000  -0.01368   0.01001   0.00442   0.02811
 ITU=  0
     Eigenvalues ---    0.02627   0.03806   0.05894   0.10653   0.13302
     Eigenvalues ---    0.18330   0.20806   0.26454   0.27923   0.28608
     Eigenvalues ---    0.36747   0.61407
 Angle between quadratic step and forces=  25.63 degrees.
 Linear search not attempted -- first point.
 Iteration  1 RMS(Cart)=  0.00023919 RMS(Int)=  0.00000006
 Iteration  2 RMS(Cart)=  0.00000006 RMS(Int)=  0.00000000
 ClnCor:  largest displacement from symmetrization is 3.67D-12 for atom     2.
 Variable       Old X    -DE/DX   Delta X   Delta X   Delta X     New X
                                 (Linear)    (Quad)   (Total)
    R1        2.51088   0.00003   0.00000   0.00006   0.00006   2.51094
    R2        2.03655   0.00002   0.00000   0.00009   0.00009   2.03664
    R3        3.25305  -0.00003   0.00000  -0.00030  -0.00030   3.25275
    R4        3.27724   0.00004   0.00000   0.00005   0.00005   3.27729
    R5        3.24980   0.00011   0.00000   0.00053   0.00053   3.25032
    A1        2.10898  -0.00007   0.00000  -0.00067  -0.00067   2.10832
    A2        2.17063   0.00004   0.00000   0.00029   0.00029   2.17092
    A3        2.00357   0.00003   0.00000   0.00038   0.00038   2.00395
    A4        2.09369   0.00001   0.00000   0.00017   0.00017   2.09387
    A5        2.17389  -0.00002   0.00000  -0.00016  -0.00016   2.17373
    A6        2.01560   0.00001   0.00000  -0.00001  -0.00001   2.01559
    D1        0.00000  -0.00000   0.00000   0.00000   0.00000   0.00000
    D2        3.14159   0.00000   0.00000   0.00000   0.00000   3.14159
    D3        3.14159  -0.00000   0.00000  -0.00000   0.00000   3.14159
    D4        0.00000   0.00000   0.00000  -0.00000   0.00000   0.00000
         Item               Value     Threshold  Converged?
 Maximum Force            0.000113     0.000450     YES
 RMS     Force            0.000041     0.000300     YES
 Maximum Displacement     0.000481     0.001800     YES
 RMS     Displacement     0.000239     0.001200     YES
 Predicted change in Energy=-7.599577D-08
 Optimization completed.
    -- Stationary point found.
                           ----------------------------
                           !   Optimized Parameters   !
                           ! (Angstroms and Degrees)  !
 --------------------------                            --------------------------
 ! Name  Definition              Value          Derivative Info.                !
 --------------------------------------------------------------------------------
 ! R1    R(1,2)                  1.3287         -DE/DX =    0.0                 !
 ! R2    R(1,3)                  1.0777         -DE/DX =    0.0                 !
 ! R3    R(1,4)                  1.7214         -DE/DX =    0.0                 !
 ! R4    R(2,5)                  1.7342         -DE/DX =    0.0                 !
 ! R5    R(2,6)                  1.7197         -DE/DX =    0.0001              !
 ! A1    A(2,1,3)              120.8359         -DE/DX =   -0.0001              !
 ! A2    A(2,1,4)              124.368          -DE/DX =    0.0                 !
 ! A3    A(3,1,4)              114.7961         -DE/DX =    0.0                 !
 ! A4    A(1,2,5)              119.9597         -DE/DX =    0.0                 !
 ! A5    A(1,2,6)              124.5547         -DE/DX =    0.0                 !
 ! A6    A(5,2,6)              115.4855         -DE/DX =    0.0                 !
 ! D1    D(3,1,2,5)              0.0            -DE/DX =    0.0                 !
 ! D2    D(3,1,2,6)            180.0            -DE/DX =    0.0                 !
 ! D3    D(4,1,2,5)            180.0            -DE/DX =    0.0                 !
 ! D4    D(4,1,2,6)              0.0            -DE/DX =    0.0                 !
 --------------------------------------------------------------------------------
 GradGradGradGradGradGradGradGradGradGradGradGradGradGradGradGradGradGrad


 ----------------------------------------------------------------------

 Electric dipole moment (input orientation):
 (Debye = 10**-18 statcoulomb cm , SI units = C m)
                  (au)            (Debye)         (10**-30 SI)
   Tot        0.338379D+00      0.860074D+00      0.286890D+01
   x         -0.323395D+00     -0.821988D+00     -0.274186D+01
   y          0.995800D-01      0.253107D+00      0.844274D+00
   z          0.000000D+00      0.000000D+00      0.000000D+00

 Dipole polarizability, Alpha (input orientation).
 (esu units = cm**3 , SI units = C**2 m**2 J**-1)
 Alpha(0;0):
               (au)            (10**-24 esu)      (10**-40 SI)
   iso        0.588684D+02      0.872340D+01      0.970609D+01
   aniso      0.409748D+02      0.607184D+01      0.675583D+01
   xx         0.621492D+02      0.920957D+01      0.102470D+02
   yx         0.546100D+01      0.809237D+00      0.900398D+00
   yy         0.800699D+02      0.118651D+02      0.132017D+02
   zx         0.000000D+00      0.000000D+00      0.000000D+00
   zy         0.000000D+00      0.000000D+00      0.000000D+00
   zz         0.343862D+02      0.509551D+01      0.566952D+01

 ----------------------------------------------------------------------

 Dipole orientation:
     6         -0.37802175         -1.22765961          1.65297136
     6          0.23301092          0.75672391          0.24110753
     1         -0.34269666         -1.11293822          3.68598294
    17         -1.26923967         -4.12196993          0.46510801
    17          1.10113188          3.57602476          1.66876657
    17          0.23868209          0.77514153         -3.00863171

 Electric dipole moment (dipole orientation):
 (Debye = 10**-18 statcoulomb cm , SI units = C m)
                  (au)            (Debye)         (10**-30 SI)
   Tot        0.338379D+00      0.860074D+00      0.286890D+01
   x          0.000000D+00      0.000000D+00      0.000000D+00
   y          0.000000D+00      0.000000D+00      0.000000D+00
   z          0.338379D+00      0.860074D+00      0.286890D+01

 Dipole polarizability, Alpha (dipole orientation).
 (esu units = cm**3 , SI units = C**2 m**2 J**-1)
 Alpha(0;0):
               (au)            (10**-24 esu)      (10**-40 SI)
   iso        0.588684D+02      0.872340D+01      0.970609D+01
   aniso      0.409748D+02      0.607184D+01      0.675583D+01
   xx         0.384742D+02      0.570129D+01      0.634354D+01
   yx         0.132762D+02      0.196732D+01      0.218894D+01
   yy         0.775017D+02      0.114846D+02      0.127783D+02
   zx         0.154535D+00      0.228997D-01      0.254793D-01
   zy         0.501866D+00      0.743688D-01      0.827465D-01
   zz         0.606294D+02      0.898435D+01      0.999643D+01

 ----------------------------------------------------------------------
 1\1\GINC-GAMBA\Freq\RB3LYP\Gen\C2H1Cl3\IRIKURA\17-Jun-2022\0\\#N Geom=
 AllCheck Guess=TCheck SCRF=Check GenChk RB3LYP/ChkBas Freq\\trichloroe
 thylene, B3LYP/pcseg-2\\0,1\C,-1.0360208407,-0.3922338766,0.\C,0.00136
 53824,0.4379884858,0.\H,-2.0455110127,-0.0149270221,0.\Cl,-0.906878297
 4,-2.1088217374,0.\Cl,-0.2612747825,2.1522261934,0.\Cl,1.6479025508,-0
 .0583440431,0.\\Version=ES64L-G16RevB.01\State=1-A'\HF=-1457.5216255\R
 MSD=3.508e-09\RMSF=5.732e-05\ZeroPoint=0.0246878\Thermal=0.0300557\Dip
 ole=-0.323395,0.09958,0.\DipoleDeriv=-0.2622442,-0.0817478,0.,0.255823
 5,0.7577022,0.,0.,0.,-0.122037,1.0018581,-0.2428088,0.,-0.3489522,0.92
 29645,0.,0.,0.,-0.0802614,0.0675918,0.0341628,0.,0.0011895,-0.0515509,
 0.,0.,0.,0.1714411,-0.0274394,0.0495556,0.,-0.2085729,-0.7203874,0.,0.
 ,0.,-0.0093952,-0.1452157,0.1376463,0.,0.0765652,-0.7660108,0.,0.,0.,0
 .0113258,-0.6345505,0.1031919,0.,0.223947,-0.1427177,0.,0.,0.,0.028926
 7\Polar=62.1492434,5.4610037,80.0698549,0.,0.,34.3862167\Quadrupole=1.
 6274251,-0.7450338,-0.8823914,-0.7652384,0.,0.\PG=CS [SG(C2H1Cl3)]\NIm
 ag=0\\0.75575773,0.10449646,0.53326199,0.,0.,0.08850386,-0.35519311,-0
 .21544600,0.,0.57342807,-0.21630113,-0.23614654,0.,0.18727565,0.474006
 84,0.,0.,-0.04963010,0.,0.,0.08600462,-0.31985272,0.09308747,0.,-0.017
 20364,0.00897456,0.,0.33170561,0.10037546,-0.07588418,0.,-0.01665611,0
 .00844308,0.,-0.09809393,0.09205826,0.,0.,-0.03097122,0.,0.,0.00516843
 ,0.,0.,0.02003693,-0.04219839,0.01788115,0.,0.00297870,-0.01761667,0.,
 0.00532014,0.02000449,0.,0.03437109,0.01720214,-0.18664400,0.,0.002714
 32,-0.03945875,0.,-0.00280417,-0.02290826,0.,-0.01305172,0.25149465,0.
 ,0.,-0.02067890,0.,0.,0.00551591,0.,0.,0.00289413,0.,0.,0.01021200,0.0
 0571475,-0.01609925,0.,-0.03441997,0.01639808,0.,0.00099133,-0.0015525
 1,0.,-0.00046685,-0.00292231,0.,0.04227975,0.00230154,-0.03944773,0.,0
 .00209612,-0.16488103,0.,0.00045724,-0.00064846,0.,-0.00198055,-0.0040
 6767,0.,-0.02407681,0.22990237,0.,0.,0.00597695,0.,0.,-0.02178481,0.,0
 .,-0.00355922,0.,0.,0.00504536,0.,0.,0.01052167,-0.04422827,0.01608016
 ,0.,-0.16959005,0.02126951,0.,-0.00096071,-0.00407740,0.,-0.00000469,-
 0.00113826,0.,-0.01409902,0.02120246,0.,0.22888274,-0.00807447,0.00486
 046,0.,0.04001602,-0.04196360,0.,-0.00162117,-0.00106045,0.,-0.0052367
 0,0.00158403,0.,0.02825280,-0.02085749,0.,-0.05333647,0.05743706,0.,0.
 ,0.00679940,0.,0.,-0.02527405,0.,0.,0.00643095,0.,0.,-0.00298850,0.,0.
 ,0.00380005,0.,0.,0.01123215\\-0.00001735,0.00015381,0.,0.00010930,-0.
 00006458,0.,0.00000352,-0.00005640,0.,0.00000816,-0.00003408,0.,0.0000
 0250,-0.00004038,0.,-0.00010613,0.00004164,0.\\\@


 ART, GLORY, FREEDOM FAIL, BUT NATURE STILL IS FAIR.

                                           -- BYRON
 Job cpu time:       0 days  0 hours  7 minutes 39.3 seconds.
 Elapsed time:       0 days  0 hours  0 minutes 38.4 seconds.
 File lengths (MBytes):  RWF=     29 Int=      0 D2E=      0 Chk=      4 Scr=      1
 Normal termination of Gaussian 16 at Fri Jun 17 14:36:52 2022.
