 Entering Gaussian System, Link 0=g16
 AtFile(1): pcseg2.gbs
            -H     0
            S   4   1.00
                  0.754732D+02           0.427821D-02
                  0.113575D+02           0.328672D-01
                  0.260081D+01           0.159578D+00
                  0.735503D+00           0.500000D+00
            S   1   1.00
                  0.231761D+00           1.0000000
            S   1   1.00
                  0.741675D-01           1.0000000
            P   1   1.00
                  0.160000D+01           1.0000000
            P   1   1.00
                  0.450000D+00           1.0000000
            D   1   1.00
                  0.125000D+01           1.0000000
            ****
            -C     0
            S   7   1.00
                  0.731999D+04           0.695369D-03
                  0.109818D+04           0.537138D-02
                  0.250014D+03           0.274734D-01
                  0.707586D+02           0.105078D+00
                  0.228595D+02           0.291262D+00
                  0.803936D+01           0.500000D+00
                  0.289309D+01           0.362224D+00
            S   2   1.00
                  0.521640D+01          -0.957844D-01
                  0.556124D+00           0.500000D+00
            S   1   1.00
                  0.228813D+00           1.0000000
            S   1   1.00
                  0.936338D-01           1.0000000
            P   4   1.00
                  0.339855D+02           0.818395D-02
                  0.772957D+01           0.586921D-01
                  0.224954D+01           0.222514D+00
                  0.767681D+00           0.500000D+00
            P   1   1.00
                  0.263283D+00           1.0000000
            P   1   1.00
                  0.848744D-01           1.0000000
            D   1   1.00
                  0.140000D+01           1.0000000
            D   1   1.00
                  0.450000D+00           1.0000000
            F   1   1.00
                  0.950000D+00           1.0000000
            ****
            -O     0
            S   7   1.00
                  0.135887D+05           0.665492D-03
                  0.203847D+04           0.514222D-02
                  0.464041D+03           0.263472D-01
                  0.131339D+03           0.101500D+00
                  0.425340D+02           0.285877D+00
                  0.150429D+02           0.500000D+00
                  0.546616D+01           0.368211D+00
            S   2   1.00
                  0.100915D+02          -0.100084D+00
                  0.110429D+01           0.500000D+00
            S   1   1.00
                  0.448082D+00           1.0000000
            S   1   1.00
                  0.175325D+00           1.0000000
            P   4   1.00
                  0.608220D+02           0.908253D-02
                  0.140332D+02           0.645878D-01
                  0.418244D+01           0.241502D+00
                  0.142490D+01           0.500000D+00
            P   1   1.00
                  0.478741D+00           1.0000000
            P   1   1.00
                  0.146257D+00           1.0000000
            D   1   1.00
                  0.220000D+01           1.0000000
            D   1   1.00
                  0.650000D+00           1.0000000
            F   1   1.00
                  0.110000D+01           1.0000000
            ****
            -N     0
            S   7   1.00
                  0.101643D+05           0.682757D-03
                  0.152481D+04           0.527488D-02
                  0.347119D+03           0.270037D-01
                  0.982389D+02           0.103673D+00
                  0.317799D+02           0.289575D+00
                  0.112240D+02           0.500000D+00
                  0.406611D+01           0.364621D+00
            S   2   1.00
                  0.747898D+01          -0.975681D-01
                  0.805040D+00           0.500000D+00
            S   1   1.00
                  0.324626D+00           1.0000000
            S   1   1.00
                  0.128132D+00           1.0000000
            P   4   1.00
                  0.482704D+02           0.829547D-02
                  0.110815D+02           0.596223D-01
                  0.326643D+01           0.227889D+00
                  0.111680D+01           0.500000D+00
            P   1   1.00
                  0.382049D+00           1.0000000
            P   1   1.00
                  0.121222D+00           1.0000000
            D   1   1.00
                  0.180000D+01           1.0000000
            D   1   1.00
                  0.550000D+00           1.0000000
            F   1   1.00
                  0.102000D+01           1.0000000
            ****
            -F     0
            S   7   1.00
                  0.174507D+05           0.655972D-03
                  0.261768D+04           0.506944D-02
                  0.595857D+03           0.259899D-01
                  0.168651D+03           0.100353D+00
                  0.546654D+02           0.284095D+00
                  0.193717D+02           0.500000D+00
                  0.706202D+01           0.370721D+00
            S   2   1.00
                  0.131197D+02          -0.101997D+00
                  0.145046D+01           0.500000D+00
            S   1   1.00
                  0.588255D+00           1.0000000
            S   1   1.00
                  0.227960D+00           1.0000000
            P   4   1.00
                  0.779407D+02           0.931135D-02
                  0.180425D+02           0.663964D-01
                  0.542342D+01           0.246386D+00
                  0.184876D+01           0.500000D+00
            P   1   1.00
                  0.617455D+00           1.0000000
            P   1   1.00
                  0.185496D+00           1.0000000
            D   1   1.00
                  0.280000D+01           1.0000000
            D   1   1.00
                  0.800000D+00           1.0000000
            F   1   1.00
                  0.120000D+01           1.0000000
            ****
            -Cl     0
            S   8   1.00
                  0.154272D+06           0.222473D-03
                  0.231232D+05           0.172590D-02
                  0.526257D+04           0.899286D-02
                  0.148995D+04           0.367724D-01
                  0.485417D+03           0.121446D+00
                  0.174634D+03           0.304148D+00
                  0.672393D+02           0.500000D+00
                  0.265780D+02           0.360252D+00
            S   3   1.00
                  0.131826D+03          -0.531330D-01
                  0.400703D+02          -0.233346D+00
                  0.789448D+01           0.500000D+00
            S   2   1.00
                  0.427711D+01           0.500000D+00
                  0.196233D+01           0.370517D+00
            S   1   1.00
                  0.520793D+00           1.0000000
            S   1   1.00
                  0.181633D+00           1.0000000
            P   7   1.00
                  0.124440D+04           0.988206D-03
                  0.295109D+03           0.829674D-02
                  0.947224D+02           0.430906D-01
                  0.352588D+02           0.148443D+00
                  0.144211D+02           0.344744D+00
                  0.610371D+01           0.500000D+00
                  0.258886D+01           0.348278D+00
            P   2   1.00
                  0.109447D+02          -0.196768D-01
                  0.104413D+01           0.500000D+00
            P   1   1.00
                  0.376184D+00           1.0000000
            P   1   1.00
                  0.120613D+00           1.0000000
            D   1   1.00
                  0.231000D+01           1.0000000
            D   1   1.00
                  0.520000D+00           1.0000000
            F   1   1.00
                  0.720000D+00           1.0000000
            ****
            -S     0
            S   8   1.00
                  0.134700D+06           0.226231D-03
                  0.201904D+05           0.175488D-02
                  0.459528D+04           0.914190D-02
                  0.130109D+04           0.373551D-01
                  0.423902D+03           0.123121D+00
                  0.152485D+03           0.306801D+00
                  0.586925D+02           0.500000D+00
                  0.231461D+02           0.354358D+00
            S   3   1.00
                  0.116327D+03          -0.491772D-01
                  0.352841D+02          -0.215962D+00
                  0.677831D+01           0.500000D+00
            S   2   1.00
                  0.360404D+01           0.500000D+00
                  0.164871D+01           0.366278D+00
            S   1   1.00
                  0.421821D+00           1.0000000
            S   1   1.00
                  0.147554D+00           1.0000000
            P   7   1.00
                  0.104863D+04           0.105273D-02
                  0.248717D+03           0.879338D-02
                  0.797887D+02           0.453358D-01
                  0.296023D+02           0.154476D+00
                  0.120627D+02           0.352366D+00
                  0.507628D+01           0.500000D+00
                  0.213375D+01           0.346429D+00
            P   2   1.00
                  0.928958D+01          -0.185932D-01
                  0.837819D+00           0.500000D+00
            P   1   1.00
                  0.301495D+00           1.0000000
            P   1   1.00
                  0.974740D-01           1.0000000
            D   1   1.00
                  0.210000D+01           1.0000000
            D   1   1.00
                  0.480000D+00           1.0000000
            F   1   1.00
                  0.660000D+00           1.0000000
            ****
            -Br     0
            S    10   1.00
                  0.233625D+07           0.532336D-04
                  0.349961D+06           0.413715D-03
                  0.796444D+05           0.217123D-02
                  0.225555D+05           0.910109D-02
                  0.735546D+04           0.323789D-01
                  0.265352D+04           0.988755D-01
                  0.103517D+04           0.248138D+00
                  0.422205D+03           0.474328D+00
                  0.180035D+03           0.500000D+00
                  0.793308D+02           0.187769D+00
            S    4   1.00
                  0.620834D+03          -0.226511D-01
                  0.190829D+03          -0.109497D+00
                  0.312505D+02           0.500000D+00
                  0.135270D+02           0.492812D+00
            S    2   1.00
                  0.216097D+02          -0.165418D+00
                  0.372566D+01           0.500000D+00
            S    1   1.00
                  0.169770D+01           1.0000000
            S    1   1.00
                  0.489332D+00           1.0000000
            S    1   1.00
                  0.175712D+00           1.0000000
            P    8   1.00
                  0.960829D+04           0.478974D-03
                  0.227618D+04           0.417853D-02
                  0.736723D+03           0.229315D-01
                  0.281579D+03           0.892653D-01
                  0.118395D+03           0.255288D+00
                  0.527481D+02           0.479074D+00
                  0.245098D+02           0.500000D+00
                  0.112009D+02           0.200944D+00
            P    4   1.00
                  0.587849D+02          -0.189674D-01
                  0.918962D+01           0.264104D+00
                  0.413895D+01           0.500000D+00
                  0.184225D+01           0.319316D+00
            P    1   1.00
                  0.713862D+00           1.0000000
            P    1   1.00
                  0.274232D+00           1.0000000
            P    1   1.00
                  0.944411D-01           1.0000000
            D    7   1.00
                  0.398470D+03           0.204066D-02
                  0.118967D+03           0.175171D-01
                  0.450197D+02           0.829708D-01
                  0.190320D+02           0.236284D+00
                  0.855686D+01           0.428468D+00
                  0.382950D+01           0.500000D+00
                  0.166291D+01           0.349360D+00
            D    1   1.00
                  0.672953D+00           1.0000000
            D    1   1.00
                  0.252000D+00           1.0000000
            F    1   1.00
                  0.530000D+00           1.0000000
            ****
            -Si     0
            S    8   1.00
                  0.996133D+05           0.235546D-03
                  0.149311D+05           0.182707D-02
                  0.339820D+04           0.951425D-02
                  0.962140D+03           0.388172D-01
                  0.313430D+03           0.127328D+00
                  0.112683D+03           0.313522D+00
                  0.433372D+02           0.500000D+00
                  0.170029D+02           0.340347D+00
            S    3   1.00
                  0.884208D+02          -0.404451D-01
                  0.266756D+02          -0.178059D+00
                  0.479640D+01           0.500000D+00
            S    2   1.00
                  0.239385D+01           0.500000D+00
                  0.108333D+01           0.338016D+00
            S    1   1.00
                  0.252420D+00           1.0000000
            S    1   1.00
                  0.891210D-01           1.0000000
            P    7   1.00
                  0.709901D+03           0.123028D-02
                  0.168426D+03           0.101366D-01
                  0.539946D+02           0.511840D-01
                  0.198646D+02           0.169967D+00
                  0.801369D+01           0.370717D+00
                  0.331870D+01           0.500000D+00
                  0.136112D+01           0.344128D+00
            P    2   1.00
                  0.622158D+01          -0.166609D-01
                  0.503049D+00           0.500000D+00
            P    1   1.00
                  0.179848D+00           1.0000000
            P    1   1.00
                  0.591912D-01           1.0000000
            D    1   1.00
                  0.168000D+01           1.0000000
            D    1   1.00
                  0.380000D+00           1.0000000
            F    1   1.00
                  0.540000D+00           1.0000000
            ****
            -P     0
            S    8   1.00
                  0.116416D+06           0.230715D-03
                  0.174500D+05           0.178960D-02
                  0.397149D+04           0.932116D-02
                  0.112447D+04           0.380591D-01
                  0.366347D+03           0.125148D+00
                  0.131757D+03           0.310022D+00
                  0.506988D+02           0.500000D+00
                  0.199436D+02           0.347528D+00
            S    3   1.00
                  0.101878D+03          -0.446755D-01
                  0.308249D+02          -0.196376D+00
                  0.573688D+01           0.500000D+00
            S    2   1.00
                  0.296868D+01           0.500000D+00
                  0.135315D+01           0.355098D+00
            S    1   1.00
                  0.332196D+00           1.0000000
            S    1   1.00
                  0.116229D+00           1.0000000
            P    7   1.00
                  0.873928D+03           0.112375D-02
                  0.207298D+03           0.933330D-02
                  0.664628D+02           0.477213D-01
                  0.245665D+02           0.160733D+00
                  0.996820D+01           0.359760D+00
                  0.416536D+01           0.500000D+00
                  0.173022D+01           0.346593D+00
            P    2   1.00
                  0.772530D+01          -0.175718D-01
                  0.657252D+00           0.500000D+00
            P    1   1.00
                  0.239903D+00           1.0000000
            P    1   1.00
                  0.800988D-01           1.0000000
            D    1   1.00
                  0.189000D+01           1.0000000
            D    1   1.00
                  0.430000D+00           1.0000000
            F    1   1.00
                  0.600000D+00           1.0000000
            ****
            
 Initial command:
 /usr/local/apps/g16_b01_avx/g16/l1.exe "/wrk/irikura/Gau-354128.inp" -scrdir="/wrk/irikura/"
 Entering Link 1 = /usr/local/apps/g16_b01_avx/g16/l1.exe PID=    354130.
  
 Copyright (c) 1988-2017, Gaussian, Inc.  All Rights Reserved.
  
 This is part of the Gaussian(R) 16 program.  It is based on
 the Gaussian(R) 09 system (copyright 2009, Gaussian, Inc.),
 the Gaussian(R) 03 system (copyright 2003, Gaussian, Inc.),
 the Gaussian(R) 98 system (copyright 1998, Gaussian, Inc.),
 the Gaussian(R) 94 system (copyright 1995, Gaussian, Inc.),
 the Gaussian 92(TM) system (copyright 1992, Gaussian, Inc.),
 the Gaussian 90(TM) system (copyright 1990, Gaussian, Inc.),
 the Gaussian 88(TM) system (copyright 1988, Gaussian, Inc.),
 the Gaussian 86(TM) system (copyright 1986, Carnegie Mellon
 University), and the Gaussian 82(TM) system (copyright 1983,
 Carnegie Mellon University). Gaussian is a federally registered
 trademark of Gaussian, Inc.
  
 This software contains proprietary and confidential information,
 including trade secrets, belonging to Gaussian, Inc.
  
 This software is provided under written license and may be
 used, copied, transmitted, or stored only in accord with that
 written license.
  
 The following legend is applicable only to US Government
 contracts under FAR:
  
                    RESTRICTED RIGHTS LEGEND
  
 Use, reproduction and disclosure by the US Government is
 subject to restrictions as set forth in subparagraphs (a)
 and (c) of the Commercial Computer Software - Restricted
 Rights clause in FAR 52.227-19.
  
 Gaussian, Inc.
 340 Quinnipiac St., Bldg. 40, Wallingford CT 06492
  
  
 ---------------------------------------------------------------
 Warning -- This program may not be used in any manner that
 competes with the business of Gaussian, Inc. or will provide
 assistance to any competitor of Gaussian, Inc.  The licensee
 of this program is prohibited from giving any competitor of
 Gaussian, Inc. access to this program.  By using this program,
 the user acknowledges that Gaussian, Inc. is engaged in the
 business of creating and licensing software in the field of
 computational chemistry and represents and warrants to the
 licensee that it is not a competitor of Gaussian, Inc. and that
 it will not use this program in any manner prohibited above.
 ---------------------------------------------------------------
  

 Cite this work as:
 Gaussian 16, Revision B.01,
 M. J. Frisch, G. W. Trucks, H. B. Schlegel, G. E. Scuseria, 
 M. A. Robb, J. R. Cheeseman, G. Scalmani, V. Barone, 
 G. A. Petersson, H. Nakatsuji, X. Li, M. Caricato, A. V. Marenich, 
 J. Bloino, B. G. Janesko, R. Gomperts, B. Mennucci, H. P. Hratchian, 
 J. V. Ortiz, A. F. Izmaylov, J. L. Sonnenberg, D. Williams-Young, 
 F. Ding, F. Lipparini, F. Egidi, J. Goings, B. Peng, A. Petrone, 
 T. Henderson, D. Ranasinghe, V. G. Zakrzewski, J. Gao, N. Rega, 
 G. Zheng, W. Liang, M. Hada, M. Ehara, K. Toyota, R. Fukuda, 
 J. Hasegawa, M. Ishida, T. Nakajima, Y. Honda, O. Kitao, H. Nakai, 
 T. Vreven, K. Throssell, J. A. Montgomery, Jr., J. E. Peralta, 
 F. Ogliaro, M. J. Bearpark, J. J. Heyd, E. N. Brothers, K. N. Kudin, 
 V. N. Staroverov, T. A. Keith, R. Kobayashi, J. Normand, 
 K. Raghavachari, A. P. Rendell, J. C. Burant, S. S. Iyengar, 
 J. Tomasi, M. Cossi, J. M. Millam, M. Klene, C. Adamo, R. Cammi, 
 J. W. Ochterski, R. L. Martin, K. Morokuma, O. Farkas, 
 J. B. Foresman, and D. J. Fox, Gaussian, Inc., Wallingford CT, 2016.
 
 ******************************************
 Gaussian 16:  ES64L-G16RevB.01 20-Dec-2017
                29-Sep-2023 
 ******************************************
 %chk=thiophene.chk
 %mem=500mw
 %nprocs=4
 Will use up to    4 processors via shared memory.
 ---------------------------------------
 # b3lyp/gen opt freq CPHF(Grid=OneStep)
 ---------------------------------------
 1/18=20,19=15,26=3,38=1/1,3;
 2/9=110,12=2,17=6,18=5,40=1/2;
 3/5=7,11=2,25=1,30=1,71=1,74=-5/1,2,3;
 4//1;
 5/5=2,38=5/2;
 6/7=2,8=2,9=2,10=2,28=1/1;
 7//1,2,3,16;
 1/18=20,19=15,26=3/3(2);
 2/9=110/2;
 99//99;
 2/9=110/2;
 3/5=7,6=1,11=2,25=1,30=1,71=1,74=-5,82=7/1,2,3;
 4/5=5,16=3,69=1/1;
 5/5=2,38=5/2;
 7//1,2,3,16;
 1/18=20,19=15,26=3/3(-5);
 2/9=110/2;
 6/7=2,8=2,9=2,10=2,19=2,28=1/1;
 99/9=1/99;
 ------------------------
 thiophene, B3LYP/pcseg-2
 ------------------------
 Symbolic Z-matrix:
 Charge =  0 Multiplicity = 1
 S                     0.        0.        1.18966 
 C                     0.        1.2363   -0.00711 
 C                     0.       -1.2363   -0.00711 
 C                     0.        0.71138  -1.26614 
 C                     0.       -0.71138  -1.26614 
 H                     0.        2.27286   0.28382 
 H                     0.       -2.27286   0.28382 
 H                     0.        1.31454  -2.16159 
 H                     0.       -1.31454  -2.16159 
 

 GradGradGradGradGradGradGradGradGradGradGradGradGradGradGradGradGradGrad
 Berny optimization.
 Initialization pass.
                           ----------------------------
                           !    Initial Parameters    !
                           ! (Angstroms and Degrees)  !
 --------------------------                            --------------------------
 ! Name  Definition              Value          Derivative Info.                !
 --------------------------------------------------------------------------------
 ! R1    R(1,2)                  1.7207         estimate D2E/DX2                !
 ! R2    R(1,3)                  1.7207         estimate D2E/DX2                !
 ! R3    R(2,4)                  1.3641         estimate D2E/DX2                !
 ! R4    R(2,6)                  1.0766         estimate D2E/DX2                !
 ! R5    R(3,5)                  1.3641         estimate D2E/DX2                !
 ! R6    R(3,7)                  1.0766         estimate D2E/DX2                !
 ! R7    R(4,5)                  1.4228         estimate D2E/DX2                !
 ! R8    R(4,8)                  1.0796         estimate D2E/DX2                !
 ! R9    R(5,9)                  1.0796         estimate D2E/DX2                !
 ! A1    A(2,1,3)               91.8617         estimate D2E/DX2                !
 ! A2    A(1,2,4)              111.4366         estimate D2E/DX2                !
 ! A3    A(1,2,6)              120.2531         estimate D2E/DX2                !
 ! A4    A(4,2,6)              128.3103         estimate D2E/DX2                !
 ! A5    A(1,3,5)              111.4366         estimate D2E/DX2                !
 ! A6    A(1,3,7)              120.2531         estimate D2E/DX2                !
 ! A7    A(5,3,7)              128.3103         estimate D2E/DX2                !
 ! A8    A(2,4,5)              112.6325         estimate D2E/DX2                !
 ! A9    A(2,4,8)              123.4039         estimate D2E/DX2                !
 ! A10   A(5,4,8)              123.9635         estimate D2E/DX2                !
 ! A11   A(3,5,4)              112.6325         estimate D2E/DX2                !
 ! A12   A(3,5,9)              123.4039         estimate D2E/DX2                !
 ! A13   A(4,5,9)              123.9635         estimate D2E/DX2                !
 ! D1    D(3,1,2,4)              0.0            estimate D2E/DX2                !
 ! D2    D(3,1,2,6)            180.0            estimate D2E/DX2                !
 ! D3    D(2,1,3,5)              0.0            estimate D2E/DX2                !
 ! D4    D(2,1,3,7)            180.0            estimate D2E/DX2                !
 ! D5    D(1,2,4,5)              0.0            estimate D2E/DX2                !
 ! D6    D(1,2,4,8)            180.0            estimate D2E/DX2                !
 ! D7    D(6,2,4,5)            180.0            estimate D2E/DX2                !
 ! D8    D(6,2,4,8)              0.0            estimate D2E/DX2                !
 ! D9    D(1,3,5,4)              0.0            estimate D2E/DX2                !
 ! D10   D(1,3,5,9)            180.0            estimate D2E/DX2                !
 ! D11   D(7,3,5,4)            180.0            estimate D2E/DX2                !
 ! D12   D(7,3,5,9)              0.0            estimate D2E/DX2                !
 ! D13   D(2,4,5,3)              0.0            estimate D2E/DX2                !
 ! D14   D(2,4,5,9)            180.0            estimate D2E/DX2                !
 ! D15   D(8,4,5,3)            180.0            estimate D2E/DX2                !
 ! D16   D(8,4,5,9)              0.0            estimate D2E/DX2                !
 --------------------------------------------------------------------------------
 Trust Radius=3.00D-01 FncErr=1.00D-07 GrdErr=1.00D-06 EigMax=2.50D+02 EigMin=1.00D-04
 Number of steps in this run=     48 maximum allowed number of steps=    100.
 GradGradGradGradGradGradGradGradGradGradGradGradGradGradGradGradGradGrad

                          Input orientation:                          
 ---------------------------------------------------------------------
 Center     Atomic      Atomic             Coordinates (Angstroms)
 Number     Number       Type             X           Y           Z
 ---------------------------------------------------------------------
      1         16           0        0.000000    0.000000    1.189661
      2          6           0        0.000000    1.236304   -0.007111
      3          6           0        0.000000   -1.236304   -0.007111
      4          6           0        0.000000    0.711381   -1.266142
      5          6           0        0.000000   -0.711381   -1.266142
      6          1           0        0.000000    2.272860    0.283817
      7          1           0        0.000000   -2.272860    0.283817
      8          1           0        0.000000    1.314542   -2.161594
      9          1           0        0.000000   -1.314542   -2.161594
 ---------------------------------------------------------------------
                    Distance matrix (angstroms):
                    1          2          3          4          5
     1  S    0.000000
     2  C    1.720672   0.000000
     3  C    1.720672   2.472608   0.000000
     4  C    2.556762   1.364076   2.319189   0.000000
     5  C    2.556762   2.319189   1.364076   1.422762   0.000000
     6  H    2.446721   1.076609   3.521203   2.200134   3.362747
     7  H    2.446721   3.521203   1.076609   3.362747   2.200134
     8  H    3.599851   2.155903   3.338954   1.079647   2.214994
     9  H    3.599851   3.338954   2.155903   2.214994   1.079647
                    6          7          8          9
     6  H    0.000000
     7  H    4.545720   0.000000
     8  H    2.626482   4.341600   0.000000
     9  H    4.341600   2.626482   2.629084   0.000000
 Stoichiometry    C4H4S
 Framework group  C2V[C2(S),SGV(C4H4)]
 Deg. of freedom     8
 Full point group                 C2V     NOp   4
 Largest Abelian subgroup         C2V     NOp   4
 Largest concise Abelian subgroup C2      NOp   2
                         Standard orientation:                         
 ---------------------------------------------------------------------
 Center     Atomic      Atomic             Coordinates (Angstroms)
 Number     Number       Type             X           Y           Z
 ---------------------------------------------------------------------
      1         16           0        0.000000    0.000000    1.189661
      2          6           0        0.000000    1.236304   -0.007111
      3          6           0       -0.000000   -1.236304   -0.007111
      4          6           0        0.000000    0.711381   -1.266142
      5          6           0       -0.000000   -0.711381   -1.266142
      6          1           0        0.000000    2.272860    0.283817
      7          1           0       -0.000000   -2.272860    0.283817
      8          1           0        0.000000    1.314542   -2.161594
      9          1           0       -0.000000   -1.314542   -2.161594
 ---------------------------------------------------------------------
 Rotational constants (GHZ):           8.0571912           5.4257836           3.2423539
 General basis read from cards:  (5D, 7F)
 There are    88 symmetry adapted cartesian basis functions of A1  symmetry.
 There are    33 symmetry adapted cartesian basis functions of A2  symmetry.
 There are    39 symmetry adapted cartesian basis functions of B1  symmetry.
 There are    79 symmetry adapted cartesian basis functions of B2  symmetry.
 There are    75 symmetry adapted basis functions of A1  symmetry.
 There are    31 symmetry adapted basis functions of A2  symmetry.
 There are    36 symmetry adapted basis functions of B1  symmetry.
 There are    68 symmetry adapted basis functions of B2  symmetry.
   210 basis functions,   346 primitive gaussians,   239 cartesian basis functions
    22 alpha electrons       22 beta electrons
       nuclear repulsion energy       202.9022646451 Hartrees.
 NAtoms=    9 NActive=    9 NUniq=    5 SFac= 3.24D+00 NAtFMM=   60 NAOKFM=F Big=F
 Integral buffers will be    131072 words long.
 Raffenetti 2 integral format.
 Two-electron integral symmetry is turned on.
 One-electron integrals computed using PRISM.
 NBasis=   210 RedAO= T EigKep=  9.25D-05  NBF=    75    31    36    68
 NBsUse=   210 1.00D-06 EigRej= -1.00D+00 NBFU=    75    31    36    68
 ExpMin= 7.42D-02 ExpMax= 1.35D+05 ExpMxC= 1.30D+03 IAcc=3 IRadAn=         5 AccDes= 0.00D+00
 Harris functional with IExCor=  402 and IRadAn=       5 diagonalized for initial guess.
 HarFok:  IExCor=  402 AccDes= 0.00D+00 IRadAn=         5 IDoV= 1 UseB2=F ITyADJ=14
 ICtDFT=  3500011 ScaDFX=  1.000000  1.000000  1.000000  1.000000
 FoFCou: FMM=F IPFlag=           0 FMFlag=      100000 FMFlg1=           0
         NFxFlg=           0 DoJE=T BraDBF=F KetDBF=T FulRan=T
         wScrn=  0.000000 ICntrl=       500 IOpCl=  0 I1Cent=   200000004 NGrid=           0
         NMat0=    1 NMatS0=      1 NMatT0=    0 NMatD0=    1 NMtDS0=    0 NMtDT0=    0
 Petite list used in FoFCou.
 Initial guess orbital symmetries:
       Occupied  (A1) (A1) (B2) (B2) (A1) (A1) (B2) (A1) (B1) (A1)
                 (B2) (A1) (A1) (B2) (A1) (B2) (A1) (B2) (B1) (A1)
                 (A2) (B1)
       Virtual   (B1) (A2) (B2) (A1) (B2) (A1) (A1) (B2) (A1) (A1)
                 (B2) (B1) (A1) (A2) (A1) (B1) (B2) (A1) (B2) (A2)
                 (A1) (B2) (B2) (B1) (A1) (A1) (B2) (B2) (A1) (B1)
                 (B2) (A2) (A1) (B2) (B2) (A1) (B2) (B1) (A1) (B1)
                 (A2) (B2) (A1) (A1) (A2) (A1) (B2) (A1) (B1) (B2)
                 (A1) (B2) (A2) (A1) (B1) (B2) (A1) (B1) (A2) (B1)
                 (B2) (A2) (A1) (B2) (A1) (B1) (B2) (A1) (A2) (B1)
                 (B2) (A2) (B2) (A1) (B2) (A1) (A1) (A2) (A1) (B2)
                 (B1) (B2) (A1) (A1) (B1) (B2) (A1) (B2) (B1) (A1)
                 (B2) (A2) (A1) (B2) (B2) (A1) (B2) (A1) (B2) (B1)
                 (B2) (B1) (A1) (A2) (A1) (A2) (B1) (A1) (B1) (A2)
                 (A1) (B2) (A1) (B2) (B1) (B2) (A1) (B2) (B1) (A2)
                 (A1) (A2) (A2) (B2) (A1) (B1) (A1) (B1) (B2) (A1)
                 (A2) (B2) (B1) (A1) (B2) (B2) (A1) (A2) (B2) (B1)
                 (A1) (A2) (B1) (A2) (B1) (A1) (B1) (A2) (B2) (A2)
                 (B2) (B1) (A1) (A1) (B2) (A2) (A1) (B2) (A1) (A2)
                 (B1) (B2) (A1) (B2) (A2) (B2) (A1) (B1) (A1) (B2)
                 (A2) (B1) (B2) (A1) (B2) (A1) (A1) (B2) (A2) (A1)
                 (B2) (A1) (B2) (B2) (A1) (B2) (B2) (A1)
 The electronic state of the initial guess is 1-A1.
 Keep R1 ints in memory in symmetry-blocked form, NReq=307976509.
 Requested convergence on RMS density matrix=1.00D-08 within 128 cycles.
 Requested convergence on MAX density matrix=1.00D-06.
 Requested convergence on             energy=1.00D-06.
 No special actions if energy rises.
 Integral accuracy reduced to 1.0D-05 until final iterations.
 Initial convergence to 1.0D-05 achieved.  Increase integral accuracy.
 SCF Done:  E(RB3LYP) =  -553.107524359     A.U. after   12 cycles
            NFock= 12  Conv=0.54D-08     -V/T= 2.0017

 **********************************************************************

            Population analysis using the SCF Density.

 **********************************************************************

 Orbital symmetries:
       Occupied  (A1) (B2) (A1) (A1) (B2) (A1) (B2) (A1) (B1) (A1)
                 (A1) (B2) (A1) (B2) (A1) (B2) (A1) (B2) (B1) (A1)
                 (B1) (A2)
       Virtual   (B1) (B2) (A1) (A2) (B2) (A1) (B2) (A1) (A1) (B2)
                 (B1) (A1) (A1) (A2) (B1) (A1) (B2) (A1) (A2) (A1)
                 (B2) (B2) (B1) (B2) (A1) (A1) (B2) (B2) (A1) (B1)
                 (B2) (A2) (A1) (B2) (B2) (B2) (A1) (A1) (B1) (A2)
                 (B1) (B2) (A1) (A1) (A2) (A1) (A1) (B2) (B1) (B2)
                 (A1) (B2) (A1) (B1) (B2) (A2) (A1) (B1) (A2) (B1)
                 (B2) (A1) (A2) (B2) (A1) (B2) (B1) (A1) (A2) (B1)
                 (B2) (A2) (B2) (B2) (A1) (A1) (A1) (B1) (A2) (A1)
                 (B2) (B2) (A1) (B1) (A1) (B2) (B1) (B2) (A1) (A1)
                 (A2) (B2) (A1) (B2) (A1) (B2) (B2) (A1) (B2) (B2)
                 (B1) (B1) (A1) (A2) (A1) (A2) (B1) (B1) (A2) (A1)
                 (B2) (A1) (A1) (B2) (B1) (B2) (A1) (B2) (B1) (A2)
                 (A2) (A1) (A2) (B2) (B1) (A1) (A1) (B1) (A1) (B2)
                 (A2) (B2) (B1) (A1) (B2) (A1) (B2) (A2) (B2) (B1)
                 (A1) (A2) (B1) (A2) (B1) (A1) (B1) (A2) (B2) (A2)
                 (B1) (B2) (A1) (A1) (A2) (B2) (A1) (B2) (A1) (A2)
                 (B1) (B2) (A1) (B2) (A2) (B2) (A1) (B1) (A1) (A2)
                 (B2) (B2) (B1) (A1) (B2) (A1) (A1) (A2) (B2) (A1)
                 (B2) (A1) (B2) (B2) (A1) (B2) (B2) (A1)
 The electronic state is 1-A1.
 Alpha  occ. eigenvalues --  -88.87007 -10.19949 -10.19948 -10.17916 -10.17868
 Alpha  occ. eigenvalues --   -7.96210  -5.92413  -5.92054  -5.91867  -0.88432
 Alpha  occ. eigenvalues --   -0.73802  -0.72856  -0.56908  -0.55725  -0.52117
 Alpha  occ. eigenvalues --   -0.41953  -0.39967  -0.39237  -0.38677  -0.34860
 Alpha  occ. eigenvalues --   -0.25876  -0.24608
 Alpha virt. eigenvalues --   -0.02396   0.01662   0.02235   0.04223   0.04937
 Alpha virt. eigenvalues --    0.05466   0.08202   0.08289   0.13256   0.16227
 Alpha virt. eigenvalues --    0.16751   0.17062   0.19604   0.19956   0.22419
 Alpha virt. eigenvalues --    0.22588   0.24423   0.28266   0.29306   0.29650
 Alpha virt. eigenvalues --    0.30244   0.31031   0.31099   0.33608   0.35008
 Alpha virt. eigenvalues --    0.37164   0.38632   0.40018   0.44139   0.48444
 Alpha virt. eigenvalues --    0.48763   0.50739   0.52058   0.55187   0.56692
 Alpha virt. eigenvalues --    0.63437   0.65182   0.69118   0.69406   0.78778
 Alpha virt. eigenvalues --    0.80385   0.83455   0.85937   0.90553   0.95140
 Alpha virt. eigenvalues --    0.96064   0.98541   0.98647   1.00219   1.03503
 Alpha virt. eigenvalues --    1.07712   1.08993   1.11182   1.12796   1.13390
 Alpha virt. eigenvalues --    1.13653   1.19637   1.25378   1.29209   1.29593
 Alpha virt. eigenvalues --    1.30042   1.33957   1.34911   1.41962   1.43026
 Alpha virt. eigenvalues --    1.43335   1.44019   1.47145   1.49346   1.52209
 Alpha virt. eigenvalues --    1.62405   1.66662   1.70203   1.72567   1.73167
 Alpha virt. eigenvalues --    1.75760   1.79428   1.82293   1.82918   1.84623
 Alpha virt. eigenvalues --    1.86519   1.92097   1.92447   2.04647   2.07171
 Alpha virt. eigenvalues --    2.10111   2.11044   2.11696   2.13942   2.16398
 Alpha virt. eigenvalues --    2.20544   2.21942   2.24756   2.29984   2.31919
 Alpha virt. eigenvalues --    2.35985   2.43020   2.70795   2.76262   2.97792
 Alpha virt. eigenvalues --    2.98460   3.00469   3.11509   3.17432   3.19566
 Alpha virt. eigenvalues --    3.23630   3.27878   3.29432   3.30998   3.32988
 Alpha virt. eigenvalues --    3.48324   3.49401   3.56033   3.58520   3.60422
 Alpha virt. eigenvalues --    3.63607   3.67452   3.75752   3.79699   3.83404
 Alpha virt. eigenvalues --    3.84417   3.84451   3.98230   3.99294   3.99919
 Alpha virt. eigenvalues --    4.00085   4.01680   4.03116   4.05450   4.06894
 Alpha virt. eigenvalues --    4.10660   4.15443   4.16822   4.17301   4.19864
 Alpha virt. eigenvalues --    4.21605   4.23165   4.23501   4.28590   4.29755
 Alpha virt. eigenvalues --    4.30162   4.36284   4.36339   4.41322   4.42565
 Alpha virt. eigenvalues --    4.43527   4.46820   4.47819   4.49719   4.51224
 Alpha virt. eigenvalues --    4.53427   4.54877   4.59368   4.63195   4.64024
 Alpha virt. eigenvalues --    4.64242   4.73192   4.77671   4.81500   4.83355
 Alpha virt. eigenvalues --    4.86089   5.06400   5.10050   5.11829   5.19711
 Alpha virt. eigenvalues --    5.20120   5.25322   5.26265   5.31385   5.32639
 Alpha virt. eigenvalues --    5.33502   5.51553   5.51682   5.55582   5.62058
 Alpha virt. eigenvalues --    5.64876   5.71627   5.77043   5.77487   5.84831
 Alpha virt. eigenvalues --    5.90281   6.04839   6.13333   6.28312   6.34569
 Alpha virt. eigenvalues --    6.74040   7.66944  26.09336
          Condensed to atoms (all electrons):
               1          2          3          4          5          6
     1  S   15.313051   0.407742   0.407742  -0.101740  -0.101740  -0.026739
     2  C    0.407742   5.001307  -0.181381   0.570015  -0.077053   0.412369
     3  C    0.407742  -0.181381   5.001307  -0.077053   0.570015   0.003133
     4  C   -0.101740   0.570015  -0.077053   4.770803   0.514392  -0.012301
     5  C   -0.101740  -0.077053   0.570015   0.514392   4.770803   0.004067
     6  H   -0.026739   0.412369   0.003133  -0.012301   0.004067   0.544909
     7  H   -0.026739   0.003133   0.412369   0.004067  -0.012301  -0.000073
     8  H    0.009976  -0.039630   0.008986   0.433445  -0.040753  -0.004609
     9  H    0.009976   0.008986  -0.039630  -0.040753   0.433445  -0.000374
               7          8          9
     1  S   -0.026739   0.009976   0.009976
     2  C    0.003133  -0.039630   0.008986
     3  C    0.412369   0.008986  -0.039630
     4  C    0.004067   0.433445  -0.040753
     5  C   -0.012301  -0.040753   0.433445
     6  H   -0.000073  -0.004609  -0.000374
     7  H    0.544909  -0.000374  -0.004609
     8  H   -0.000374   0.603874  -0.003422
     9  H   -0.004609  -0.003422   0.603874
 Mulliken charges:
               1
     1  S    0.108471
     2  C   -0.105488
     3  C   -0.105488
     4  C   -0.060874
     5  C   -0.060874
     6  H    0.079619
     7  H    0.079619
     8  H    0.032508
     9  H    0.032508
 Sum of Mulliken charges =   0.00000
 Mulliken charges with hydrogens summed into heavy atoms:
               1
     1  S    0.108471
     2  C   -0.025869
     3  C   -0.025869
     4  C   -0.028366
     5  C   -0.028366
 Electronic spatial extent (au):  <R**2>=            399.8744
 Charge=              0.0000 electrons
 Dipole moment (field-independent basis, Debye):
    X=              0.0000    Y=              0.0000    Z=             -0.4793  Tot=              0.4793
 Quadrupole moment (field-independent basis, Debye-Ang):
   XX=            -40.4503   YY=            -31.9691   ZZ=            -35.1028
   XY=              0.0000   XZ=              0.0000   YZ=              0.0000
 Traceless Quadrupole moment (field-independent basis, Debye-Ang):
   XX=             -4.6095   YY=              3.8717   ZZ=              0.7379
   XY=              0.0000   XZ=              0.0000   YZ=              0.0000
 Octapole moment (field-independent basis, Debye-Ang**2):
  XXX=              0.0000  YYY=             -0.0000  ZZZ=             -4.8533  XYY=              0.0000
  XXY=             -0.0000  XXZ=              2.2727  XZZ=              0.0000  YZZ=              0.0000
  YYZ=              2.1755  XYZ=             -0.0000
 Hexadecapole moment (field-independent basis, Debye-Ang**3):
 XXXX=            -52.3946 YYYY=           -200.1773 ZZZZ=           -281.0312 XXXY=             -0.0000
 XXXZ=             -0.0000 YYYX=             -0.0000 YYYZ=             -0.0000 ZZZX=             -0.0000
 ZZZY=              0.0000 XXYY=            -52.7243 XXZZ=            -62.5540 YYZZ=            -78.3535
 XXYZ=             -0.0000 YYXZ=             -0.0000 ZZXY=             -0.0000
 N-N= 2.029022646451D+02 E-N=-1.712328218422D+03  KE= 5.521587141967D+02
 Symmetry A1   KE= 3.979641906573D+02
 Symmetry A2   KE= 2.314372991877D+00
 Symmetry B1   KE= 4.073571426349D+01
 Symmetry B2   KE= 1.111444362840D+02
 Calling FoFJK, ICntrl=      2127 FMM=F ISym2X=1 I1Cent= 0 IOpClX= 0 NMat=1 NMatS=1 NMatT=0.
 ***** Axes restored to original set *****
 -------------------------------------------------------------------
 Center     Atomic                   Forces (Hartrees/Bohr)
 Number     Number              X              Y              Z
 -------------------------------------------------------------------
      1       16          -0.000000000   -0.000000000    0.000147007
      2        6           0.000000000   -0.000009454    0.000045694
      3        6           0.000000000    0.000009454    0.000045694
      4        6          -0.000000000   -0.000129892   -0.000075912
      5        6          -0.000000000    0.000129892   -0.000075912
      6        1           0.000000000    0.000022230   -0.000029672
      7        1           0.000000000   -0.000022230   -0.000029672
      8        1           0.000000000    0.000036634   -0.000013615
      9        1           0.000000000   -0.000036634   -0.000013615
 -------------------------------------------------------------------
 Cartesian Forces:  Max     0.000147007 RMS     0.000053416

 GradGradGradGradGradGradGradGradGradGradGradGradGradGradGradGradGradGrad
 Berny optimization.
 FormGI is forming the generalized inverse of G from B-inverse, IUseBI=4.
 Internal  Forces:  Max     0.000100849 RMS     0.000038513
 Search for a local minimum.
 Step number   1 out of a maximum of   48
 All quantities printed in internal units (Hartrees-Bohrs-Radians)
 Mixed Optimization -- En-DIIS/RFO-DIIS
 Second derivative matrix not updated -- first step.
 ITU=  0
     Eigenvalues ---    0.01814   0.01978   0.02180   0.02222   0.02273
     Eigenvalues ---    0.02349   0.16000   0.16000   0.16000   0.16000
     Eigenvalues ---    0.22000   0.22650   0.32372   0.32687   0.36037
     Eigenvalues ---    0.36037   0.36407   0.36407   0.40849   0.48218
     Eigenvalues ---    0.51642
 RFO step:  Lambda=-1.91206921D-07 EMin= 1.81359010D-02
 Linear search not attempted -- first point.
 Iteration  1 RMS(Cart)=  0.00016275 RMS(Int)=  0.00000002
 Iteration  2 RMS(Cart)=  0.00000003 RMS(Int)=  0.00000000
 ClnCor:  largest displacement from symmetrization is 5.07D-13 for atom     6.
 Variable       Old X    -DE/DX   Delta X   Delta X   Delta X     New X
                                 (Linear)    (Quad)   (Total)
    R1        3.25160   0.00007   0.00000   0.00020   0.00020   3.25180
    R2        3.25160   0.00007   0.00000   0.00020   0.00020   3.25180
    R3        2.57773   0.00008   0.00000   0.00015   0.00015   2.57788
    R4        2.03450   0.00001   0.00000   0.00004   0.00004   2.03453
    R5        2.57773   0.00008   0.00000   0.00015   0.00015   2.57788
    R6        2.03450   0.00001   0.00000   0.00004   0.00004   2.03453
    R7        2.68863  -0.00010   0.00000  -0.00024  -0.00024   2.68839
    R8        2.04024   0.00003   0.00000   0.00009   0.00009   2.04033
    R9        2.04024   0.00003   0.00000   0.00009   0.00009   2.04033
    A1        1.60329  -0.00008   0.00000  -0.00033  -0.00033   1.60296
    A2        1.94494   0.00005   0.00000   0.00023   0.00023   1.94517
    A3        2.09881   0.00001   0.00000   0.00010   0.00010   2.09892
    A4        2.23944  -0.00006   0.00000  -0.00034  -0.00034   2.23910
    A5        1.94494   0.00005   0.00000   0.00023   0.00023   1.94517
    A6        2.09881   0.00001   0.00000   0.00010   0.00010   2.09892
    A7        2.23944  -0.00006   0.00000  -0.00034  -0.00034   2.23910
    A8        1.96581  -0.00001   0.00000  -0.00007  -0.00007   1.96574
    A9        2.15381  -0.00002   0.00000  -0.00011  -0.00011   2.15369
   A10        2.16357   0.00003   0.00000   0.00018   0.00018   2.16375
   A11        1.96581  -0.00001   0.00000  -0.00007  -0.00007   1.96574
   A12        2.15381  -0.00002   0.00000  -0.00011  -0.00011   2.15369
   A13        2.16357   0.00003   0.00000   0.00018   0.00018   2.16375
    D1       -0.00000   0.00000   0.00000   0.00000   0.00000   0.00000
    D2        3.14159   0.00000   0.00000   0.00000   0.00000   3.14159
    D3        0.00000  -0.00000   0.00000  -0.00000   0.00000   0.00000
    D4        3.14159  -0.00000   0.00000  -0.00000   0.00000   3.14159
    D5        0.00000  -0.00000   0.00000  -0.00000   0.00000   0.00000
    D6        3.14159  -0.00000   0.00000  -0.00000   0.00000   3.14159
    D7        3.14159  -0.00000   0.00000  -0.00000   0.00000   3.14159
    D8       -0.00000  -0.00000   0.00000   0.00000   0.00000   0.00000
    D9       -0.00000   0.00000   0.00000   0.00000   0.00000   0.00000
   D10        3.14159   0.00000   0.00000   0.00000   0.00000   3.14159
   D11        3.14159   0.00000   0.00000   0.00000   0.00000   3.14159
   D12       -0.00000   0.00000   0.00000  -0.00000   0.00000   0.00000
   D13       -0.00000   0.00000   0.00000   0.00000   0.00000   0.00000
   D14        3.14159   0.00000   0.00000   0.00000   0.00000   3.14159
   D15        3.14159  -0.00000   0.00000  -0.00000   0.00000   3.14159
   D16       -0.00000   0.00000   0.00000   0.00000   0.00000   0.00000
         Item               Value     Threshold  Converged?
 Maximum Force            0.000101     0.000450     YES
 RMS     Force            0.000039     0.000300     YES
 Maximum Displacement     0.000638     0.001800     YES
 RMS     Displacement     0.000163     0.001200     YES
 Predicted change in Energy=-9.560334D-08
 Optimization completed.
    -- Stationary point found.
                           ----------------------------
                           !   Optimized Parameters   !
                           ! (Angstroms and Degrees)  !
 --------------------------                            --------------------------
 ! Name  Definition              Value          Derivative Info.                !
 --------------------------------------------------------------------------------
 ! R1    R(1,2)                  1.7207         -DE/DX =    0.0001              !
 ! R2    R(1,3)                  1.7207         -DE/DX =    0.0001              !
 ! R3    R(2,4)                  1.3641         -DE/DX =    0.0001              !
 ! R4    R(2,6)                  1.0766         -DE/DX =    0.0                 !
 ! R5    R(3,5)                  1.3641         -DE/DX =    0.0001              !
 ! R6    R(3,7)                  1.0766         -DE/DX =    0.0                 !
 ! R7    R(4,5)                  1.4228         -DE/DX =   -0.0001              !
 ! R8    R(4,8)                  1.0796         -DE/DX =    0.0                 !
 ! R9    R(5,9)                  1.0796         -DE/DX =    0.0                 !
 ! A1    A(2,1,3)               91.8617         -DE/DX =   -0.0001              !
 ! A2    A(1,2,4)              111.4366         -DE/DX =    0.0001              !
 ! A3    A(1,2,6)              120.2531         -DE/DX =    0.0                 !
 ! A4    A(4,2,6)              128.3103         -DE/DX =   -0.0001              !
 ! A5    A(1,3,5)              111.4366         -DE/DX =    0.0001              !
 ! A6    A(1,3,7)              120.2531         -DE/DX =    0.0                 !
 ! A7    A(5,3,7)              128.3103         -DE/DX =   -0.0001              !
 ! A8    A(2,4,5)              112.6325         -DE/DX =    0.0                 !
 ! A9    A(2,4,8)              123.4039         -DE/DX =    0.0                 !
 ! A10   A(5,4,8)              123.9635         -DE/DX =    0.0                 !
 ! A11   A(3,5,4)              112.6325         -DE/DX =    0.0                 !
 ! A12   A(3,5,9)              123.4039         -DE/DX =    0.0                 !
 ! A13   A(4,5,9)              123.9635         -DE/DX =    0.0                 !
 ! D1    D(3,1,2,4)              0.0            -DE/DX =    0.0                 !
 ! D2    D(3,1,2,6)            180.0            -DE/DX =    0.0                 !
 ! D3    D(2,1,3,5)              0.0            -DE/DX =    0.0                 !
 ! D4    D(2,1,3,7)            180.0            -DE/DX =    0.0                 !
 ! D5    D(1,2,4,5)              0.0            -DE/DX =    0.0                 !
 ! D6    D(1,2,4,8)            180.0            -DE/DX =    0.0                 !
 ! D7    D(6,2,4,5)            180.0            -DE/DX =    0.0                 !
 ! D8    D(6,2,4,8)              0.0            -DE/DX =    0.0                 !
 ! D9    D(1,3,5,4)              0.0            -DE/DX =    0.0                 !
 ! D10   D(1,3,5,9)            180.0            -DE/DX =    0.0                 !
 ! D11   D(7,3,5,4)            180.0            -DE/DX =    0.0                 !
 ! D12   D(7,3,5,9)              0.0            -DE/DX =    0.0                 !
 ! D13   D(2,4,5,3)              0.0            -DE/DX =    0.0                 !
 ! D14   D(2,4,5,9)            180.0            -DE/DX =    0.0                 !
 ! D15   D(8,4,5,3)            180.0            -DE/DX =    0.0                 !
 ! D16   D(8,4,5,9)              0.0            -DE/DX =    0.0                 !
 --------------------------------------------------------------------------------
 GradGradGradGradGradGradGradGradGradGradGradGradGradGradGradGradGradGrad

                          Input orientation:                          
 ---------------------------------------------------------------------
 Center     Atomic      Atomic             Coordinates (Angstroms)
 Number     Number       Type             X           Y           Z
 ---------------------------------------------------------------------
      1         16           0       -0.000000    0.000000    1.189661
      2          6           0       -0.000000    1.236304   -0.007111
      3          6           0       -0.000000   -1.236304   -0.007111
      4          6           0        0.000000    0.711381   -1.266142
      5          6           0        0.000000   -0.711381   -1.266142
      6          1           0       -0.000000    2.272860    0.283817
      7          1           0       -0.000000   -2.272860    0.283817
      8          1           0        0.000000    1.314542   -2.161594
      9          1           0        0.000000   -1.314542   -2.161594
 ---------------------------------------------------------------------
                    Distance matrix (angstroms):
                    1          2          3          4          5
     1  S    0.000000
     2  C    1.720672   0.000000
     3  C    1.720672   2.472608   0.000000
     4  C    2.556762   1.364076   2.319189   0.000000
     5  C    2.556762   2.319189   1.364076   1.422762   0.000000
     6  H    2.446721   1.076609   3.521203   2.200134   3.362747
     7  H    2.446721   3.521203   1.076609   3.362747   2.200134
     8  H    3.599851   2.155903   3.338954   1.079647   2.214994
     9  H    3.599851   3.338954   2.155903   2.214994   1.079647
                    6          7          8          9
     6  H    0.000000
     7  H    4.545720   0.000000
     8  H    2.626482   4.341600   0.000000
     9  H    4.341600   2.626482   2.629084   0.000000
 Stoichiometry    C4H4S
 Framework group  C2V[C2(S),SGV(C4H4)]
 Deg. of freedom     8
 Full point group                 C2V     NOp   4
 Largest Abelian subgroup         C2V     NOp   4
 Largest concise Abelian subgroup C2      NOp   2
                         Standard orientation:                         
 ---------------------------------------------------------------------
 Center     Atomic      Atomic             Coordinates (Angstroms)
 Number     Number       Type             X           Y           Z
 ---------------------------------------------------------------------
      1         16           0        0.000000    0.000000    1.189661
      2          6           0        0.000000    1.236304   -0.007111
      3          6           0       -0.000000   -1.236304   -0.007111
      4          6           0        0.000000    0.711381   -1.266142
      5          6           0       -0.000000   -0.711381   -1.266142
      6          1           0        0.000000    2.272860    0.283817
      7          1           0       -0.000000   -2.272860    0.283817
      8          1           0        0.000000    1.314542   -2.161594
      9          1           0       -0.000000   -1.314542   -2.161594
 ---------------------------------------------------------------------
 Rotational constants (GHZ):           8.0571912           5.4257836           3.2423539
 1\1\GINC-GAMBA\FOpt\RB3LYP\Gen\C4H4S1\IRIKURA\29-Sep-2023\0\\# b3lyp/g
 en opt freq CPHF(Grid=OneStep)\\thiophene, B3LYP/pcseg-2\\0,1\S,0.,0.,
 1.189661\C,0.,1.236304,-0.007111\C,0.,-1.236304,-0.007111\C,0.,0.71138
 1,-1.266142\C,0.,-0.711381,-1.266142\H,0.,2.27286,0.283817\H,0.,-2.272
 86,0.283817\H,0.,1.314542,-2.161594\H,0.,-1.314542,-2.161594\\Version=
 ES64L-G16RevB.01\State=1-A1\HF=-553.1075244\RMSD=5.359e-09\RMSF=5.342e
 -05\Dipole=0.,0.,-0.1885736\Quadrupole=-3.4270841,2.8784811,0.548603,0
 .,0.,0.\PG=C02V [C2(S1),SGV(C4H4)]\\@


 I take a simple view of life: keep your eyes open and get on with it.
 -- Laurence Olivier
 Job cpu time:       0 days  0 hours  1 minutes 10.2 seconds.
 Elapsed time:       0 days  0 hours  0 minutes 17.8 seconds.
 File lengths (MBytes):  RWF=     24 Int=      0 D2E=      0 Chk=      4 Scr=      1
 Normal termination of Gaussian 16 at Fri Sep 29 06:31:52 2023.
 Link1:  Proceeding to internal job step number  2.
 ------------------------------------------------------------------
 #N Geom=AllCheck Guess=TCheck SCRF=Check GenChk RB3LYP/ChkBas Freq
 ------------------------------------------------------------------
 1/10=4,29=7,30=1,38=1,40=1/1,3;
 2/12=2,40=1/2;
 3/5=7,6=2,11=2,14=-4,25=1,30=1,67=1,70=2,71=2,74=-5,82=7,116=1,140=1/1,2,3;
 4/5=101/1;
 5/5=2,38=6,98=1/2;
 8/6=4,10=90,11=11/1;
 11/6=1,8=1,9=11,15=111,16=1/1,2,10;
 10/6=1,60=-420/2;
 6/7=2,8=2,9=2,10=2,28=1/1;
 7/8=1,10=1,25=1/1,2,3,16;
 1/10=4,30=1/3;
 99//99;
 Structure from the checkpoint file:  "thiophene.chk"
 ------------------------
 thiophene, B3LYP/pcseg-2
 ------------------------
 Charge =  0 Multiplicity = 1
 Redundant internal coordinates found in file.  (old form).
 S,0,0.,0.,1.189661
 C,0,0.,1.236304,-0.007111
 C,0,0.,-1.236304,-0.007111
 C,0,0.,0.711381,-1.266142
 C,0,0.,-0.711381,-1.266142
 H,0,0.,2.27286,0.283817
 H,0,0.,-2.27286,0.283817
 H,0,0.,1.314542,-2.161594
 H,0,0.,-1.314542,-2.161594
 Recover connectivity data from disk.

 GradGradGradGradGradGradGradGradGradGradGradGradGradGradGradGradGradGrad
 Berny optimization.
 Initialization pass.
                           ----------------------------
                           !    Initial Parameters    !
                           ! (Angstroms and Degrees)  !
 --------------------------                            --------------------------
 ! Name  Definition              Value          Derivative Info.                !
 --------------------------------------------------------------------------------
 ! R1    R(1,2)                  1.7207         calculate D2E/DX2 analytically  !
 ! R2    R(1,3)                  1.7207         calculate D2E/DX2 analytically  !
 ! R3    R(2,4)                  1.3641         calculate D2E/DX2 analytically  !
 ! R4    R(2,6)                  1.0766         calculate D2E/DX2 analytically  !
 ! R5    R(3,5)                  1.3641         calculate D2E/DX2 analytically  !
 ! R6    R(3,7)                  1.0766         calculate D2E/DX2 analytically  !
 ! R7    R(4,5)                  1.4228         calculate D2E/DX2 analytically  !
 ! R8    R(4,8)                  1.0796         calculate D2E/DX2 analytically  !
 ! R9    R(5,9)                  1.0796         calculate D2E/DX2 analytically  !
 ! A1    A(2,1,3)               91.8617         calculate D2E/DX2 analytically  !
 ! A2    A(1,2,4)              111.4366         calculate D2E/DX2 analytically  !
 ! A3    A(1,2,6)              120.2531         calculate D2E/DX2 analytically  !
 ! A4    A(4,2,6)              128.3103         calculate D2E/DX2 analytically  !
 ! A5    A(1,3,5)              111.4366         calculate D2E/DX2 analytically  !
 ! A6    A(1,3,7)              120.2531         calculate D2E/DX2 analytically  !
 ! A7    A(5,3,7)              128.3103         calculate D2E/DX2 analytically  !
 ! A8    A(2,4,5)              112.6325         calculate D2E/DX2 analytically  !
 ! A9    A(2,4,8)              123.4039         calculate D2E/DX2 analytically  !
 ! A10   A(5,4,8)              123.9635         calculate D2E/DX2 analytically  !
 ! A11   A(3,5,4)              112.6325         calculate D2E/DX2 analytically  !
 ! A12   A(3,5,9)              123.4039         calculate D2E/DX2 analytically  !
 ! A13   A(4,5,9)              123.9635         calculate D2E/DX2 analytically  !
 ! D1    D(3,1,2,4)              0.0            calculate D2E/DX2 analytically  !
 ! D2    D(3,1,2,6)            180.0            calculate D2E/DX2 analytically  !
 ! D3    D(2,1,3,5)              0.0            calculate D2E/DX2 analytically  !
 ! D4    D(2,1,3,7)            180.0            calculate D2E/DX2 analytically  !
 ! D5    D(1,2,4,5)              0.0            calculate D2E/DX2 analytically  !
 ! D6    D(1,2,4,8)            180.0            calculate D2E/DX2 analytically  !
 ! D7    D(6,2,4,5)            180.0            calculate D2E/DX2 analytically  !
 ! D8    D(6,2,4,8)              0.0            calculate D2E/DX2 analytically  !
 ! D9    D(1,3,5,4)              0.0            calculate D2E/DX2 analytically  !
 ! D10   D(1,3,5,9)            180.0            calculate D2E/DX2 analytically  !
 ! D11   D(7,3,5,4)            180.0            calculate D2E/DX2 analytically  !
 ! D12   D(7,3,5,9)              0.0            calculate D2E/DX2 analytically  !
 ! D13   D(2,4,5,3)              0.0            calculate D2E/DX2 analytically  !
 ! D14   D(2,4,5,9)            180.0            calculate D2E/DX2 analytically  !
 ! D15   D(8,4,5,3)            180.0            calculate D2E/DX2 analytically  !
 ! D16   D(8,4,5,9)              0.0            calculate D2E/DX2 analytically  !
 --------------------------------------------------------------------------------
 Trust Radius=3.00D-01 FncErr=1.00D-07 GrdErr=1.00D-07 EigMax=2.50D+02 EigMin=1.00D-04
 Number of steps in this run=      2 maximum allowed number of steps=      2.
 GradGradGradGradGradGradGradGradGradGradGradGradGradGradGradGradGradGrad

                          Input orientation:                          
 ---------------------------------------------------------------------
 Center     Atomic      Atomic             Coordinates (Angstroms)
 Number     Number       Type             X           Y           Z
 ---------------------------------------------------------------------
      1         16           0       -0.000000   -0.000000    1.189661
      2          6           0        0.000000    1.236304   -0.007111
      3          6           0       -0.000000   -1.236304   -0.007111
      4          6           0        0.000000    0.711381   -1.266142
      5          6           0        0.000000   -0.711381   -1.266142
      6          1           0       -0.000000    2.272860    0.283817
      7          1           0       -0.000000   -2.272860    0.283817
      8          1           0        0.000000    1.314542   -2.161594
      9          1           0        0.000000   -1.314542   -2.161594
 ---------------------------------------------------------------------
                    Distance matrix (angstroms):
                    1          2          3          4          5
     1  S    0.000000
     2  C    1.720672   0.000000
     3  C    1.720672   2.472608   0.000000
     4  C    2.556762   1.364076   2.319189   0.000000
     5  C    2.556762   2.319189   1.364076   1.422762   0.000000
     6  H    2.446721   1.076609   3.521203   2.200134   3.362747
     7  H    2.446721   3.521203   1.076609   3.362747   2.200134
     8  H    3.599851   2.155903   3.338954   1.079647   2.214994
     9  H    3.599851   3.338954   2.155903   2.214994   1.079647
                    6          7          8          9
     6  H    0.000000
     7  H    4.545720   0.000000
     8  H    2.626482   4.341600   0.000000
     9  H    4.341600   2.626482   2.629084   0.000000
 Stoichiometry    C4H4S
 Framework group  C2V[C2(S),SGV(C4H4)]
 Deg. of freedom     8
 Full point group                 C2V     NOp   4
 Largest Abelian subgroup         C2V     NOp   4
 Largest concise Abelian subgroup C2      NOp   2
                         Standard orientation:                         
 ---------------------------------------------------------------------
 Center     Atomic      Atomic             Coordinates (Angstroms)
 Number     Number       Type             X           Y           Z
 ---------------------------------------------------------------------
      1         16           0        0.000000    0.000000    1.189661
      2          6           0        0.000000    1.236304   -0.007111
      3          6           0       -0.000000   -1.236304   -0.007111
      4          6           0        0.000000    0.711381   -1.266142
      5          6           0       -0.000000   -0.711381   -1.266142
      6          1           0        0.000000    2.272860    0.283817
      7          1           0       -0.000000   -2.272860    0.283817
      8          1           0        0.000000    1.314542   -2.161594
      9          1           0       -0.000000   -1.314542   -2.161594
 ---------------------------------------------------------------------
 Rotational constants (GHZ):           8.0571912           5.4257836           3.2423539
 Basis read from chk: "thiophene.chk" (5D, 7F)
 There are    88 symmetry adapted cartesian basis functions of A1  symmetry.
 There are    33 symmetry adapted cartesian basis functions of A2  symmetry.
 There are    39 symmetry adapted cartesian basis functions of B1  symmetry.
 There are    79 symmetry adapted cartesian basis functions of B2  symmetry.
 There are    75 symmetry adapted basis functions of A1  symmetry.
 There are    31 symmetry adapted basis functions of A2  symmetry.
 There are    36 symmetry adapted basis functions of B1  symmetry.
 There are    68 symmetry adapted basis functions of B2  symmetry.
   210 basis functions,   346 primitive gaussians,   239 cartesian basis functions
    22 alpha electrons       22 beta electrons
       nuclear repulsion energy       202.9022646451 Hartrees.
 NAtoms=    9 NActive=    9 NUniq=    5 SFac= 3.24D+00 NAtFMM=   60 NAOKFM=F Big=F
 Integral buffers will be    131072 words long.
 Raffenetti 2 integral format.
 Two-electron integral symmetry is turned on.
 One-electron integrals computed using PRISM.
 NBasis=   210 RedAO= T EigKep=  9.25D-05  NBF=    75    31    36    68
 NBsUse=   210 1.00D-06 EigRej= -1.00D+00 NBFU=    75    31    36    68
 Initial guess from the checkpoint file:  "thiophene.chk"
 B after Tr=    -0.000000   -0.000000    0.000000
         Rot=    1.000000    0.000000   -0.000000   -0.000000 Ang=   0.00 deg.
 Initial guess orbital symmetries:
       Occupied  (A1) (B2) (A1) (A1) (B2) (A1) (B2) (A1) (B1) (A1)
                 (A1) (B2) (A1) (B2) (A1) (B2) (A1) (B2) (B1) (A1)
                 (B1) (A2)
       Virtual   (B1) (B2) (A1) (A2) (B2) (A1) (B2) (A1) (A1) (B2)
                 (B1) (A1) (A1) (A2) (B1) (A1) (B2) (A1) (A2) (A1)
                 (B2) (B2) (B1) (B2) (A1) (A1) (B2) (B2) (A1) (B1)
                 (B2) (A2) (A1) (B2) (B2) (B2) (A1) (A1) (B1) (A2)
                 (B1) (B2) (A1) (A1) (A2) (A1) (A1) (B2) (B1) (B2)
                 (A1) (B2) (A1) (B1) (B2) (A2) (A1) (B1) (A2) (B1)
                 (B2) (A1) (A2) (B2) (A1) (B2) (B1) (A1) (A2) (B1)
                 (B2) (A2) (B2) (B2) (A1) (A1) (A1) (B1) (A2) (A1)
                 (B2) (B2) (A1) (B1) (A1) (B2) (B1) (B2) (A1) (A1)
                 (A2) (B2) (A1) (B2) (A1) (B2) (B2) (A1) (B2) (B2)
                 (B1) (B1) (A1) (A2) (A1) (A2) (B1) (B1) (A2) (A1)
                 (B2) (A1) (A1) (B2) (B1) (B2) (A1) (B2) (B1) (A2)
                 (A2) (A1) (A2) (B2) (B1) (A1) (A1) (B1) (A1) (B2)
                 (A2) (B2) (B1) (A1) (B2) (A1) (B2) (A2) (B2) (B1)
                 (A1) (A2) (B1) (A2) (B1) (A1) (B1) (A2) (B2) (A2)
                 (B1) (B2) (A1) (A1) (A2) (B2) (A1) (B2) (A1) (A2)
                 (B1) (B2) (A1) (B2) (A2) (B2) (A1) (B1) (A1) (A2)
                 (B2) (B2) (B1) (A1) (B2) (A1) (A1) (A2) (B2) (A1)
                 (B2) (A1) (B2) (B2) (A1) (B2) (B2) (A1)
 Keep R1 ints in memory in symmetry-blocked form, NReq=307976509.
 Requested convergence on RMS density matrix=1.00D-08 within 128 cycles.
 Requested convergence on MAX density matrix=1.00D-06.
 Requested convergence on             energy=1.00D-06.
 No special actions if energy rises.
 SCF Done:  E(RB3LYP) =  -553.107524359     A.U. after    1 cycles
            NFock=  1  Conv=0.16D-08     -V/T= 2.0017
 DoSCS=F DFT=T ScalE2(SS,OS)=  1.000000  1.000000
 Range of M.O.s used for correlation:     1   210
 NBasis=   210 NAE=    22 NBE=    22 NFC=     0 NFV=     0
 NROrb=    210 NOA=    22 NOB=    22 NVA=   188 NVB=   188

 **** Warning!!: The largest alpha MO coefficient is  0.28553523D+02

 Symmetrizing basis deriv contribution to polar:
 IMax=3 JMax=2 DiffMx= 0.00D+00
 G2DrvN: will do    10 centers at a time, making    1 passes.
 Calling FoFCou, ICntrl=  3107 FMM=F I1Cent=   0 AccDes= 0.00D+00.
 End of G2Drv F.D. properties file   721 does not exist.
 End of G2Drv F.D. properties file   722 does not exist.
 End of G2Drv F.D. properties file   788 does not exist.
          IDoAtm=111111111
          Differentiating once with respect to electric field.
                with respect to dipole field.
          Differentiating once with respect to nuclear coordinates.
 Keep R1 ints in memory in symmetry-blocked form, NReq=307982146.
          There are    18 degrees of freedom in the 1st order CPHF.  IDoFFX=4 NUNeed=    18.
     18 vectors produced by pass  0 Test12= 2.30D-14 5.56D-09 XBig12= 9.64D+01 6.86D+00.
 AX will form    18 AO Fock derivatives at one time.
     18 vectors produced by pass  1 Test12= 2.30D-14 5.56D-09 XBig12= 3.20D+01 1.56D+00.
     18 vectors produced by pass  2 Test12= 2.30D-14 5.56D-09 XBig12= 9.78D-01 2.06D-01.
     18 vectors produced by pass  3 Test12= 2.30D-14 5.56D-09 XBig12= 1.74D-02 2.91D-02.
     18 vectors produced by pass  4 Test12= 2.30D-14 5.56D-09 XBig12= 6.23D-05 1.90D-03.
     18 vectors produced by pass  5 Test12= 2.30D-14 5.56D-09 XBig12= 1.82D-07 1.13D-04.
     12 vectors produced by pass  6 Test12= 2.30D-14 5.56D-09 XBig12= 2.68D-10 3.08D-06.
      3 vectors produced by pass  7 Test12= 2.30D-14 5.56D-09 XBig12= 5.02D-13 1.10D-07.
 InvSVY:  IOpt=1 It=  1 EMax= 1.78D-15
 Solved reduced A of dimension   123 with    18 vectors.
 Isotropic polarizability for W=    0.000000       59.26 Bohr**3.
 End of Minotr F.D. properties file   721 does not exist.
 End of Minotr F.D. properties file   722 does not exist.
 End of Minotr F.D. properties file   788 does not exist.

 **********************************************************************

            Population analysis using the SCF Density.

 **********************************************************************

 Orbital symmetries:
       Occupied  (A1) (B2) (A1) (A1) (B2) (A1) (B2) (A1) (B1) (A1)
                 (A1) (B2) (A1) (B2) (A1) (B2) (A1) (B2) (B1) (A1)
                 (B1) (A2)
       Virtual   (B1) (B2) (A1) (A2) (B2) (A1) (B2) (A1) (A1) (B2)
                 (B1) (A1) (A1) (A2) (B1) (A1) (B2) (A1) (A2) (A1)
                 (B2) (B2) (B1) (B2) (A1) (A1) (B2) (B2) (A1) (B1)
                 (B2) (A2) (A1) (B2) (B2) (B2) (A1) (A1) (B1) (A2)
                 (B1) (B2) (A1) (A1) (A2) (A1) (A1) (B2) (B1) (B2)
                 (A1) (B2) (A1) (B1) (B2) (A2) (A1) (B1) (A2) (B1)
                 (B2) (A1) (A2) (B2) (A1) (B2) (B1) (A1) (A2) (B1)
                 (B2) (A2) (B2) (B2) (A1) (A1) (A1) (B1) (A2) (A1)
                 (B2) (B2) (A1) (B1) (A1) (B2) (B1) (B2) (A1) (A1)
                 (A2) (B2) (A1) (B2) (A1) (B2) (B2) (A1) (B2) (B2)
                 (B1) (B1) (A1) (A2) (A1) (A2) (B1) (B1) (A2) (A1)
                 (B2) (A1) (A1) (B2) (B1) (B2) (A1) (B2) (B1) (A2)
                 (A2) (A1) (A2) (B2) (B1) (A1) (A1) (B1) (A1) (B2)
                 (A2) (B2) (B1) (A1) (B2) (A1) (B2) (A2) (B2) (B1)
                 (A1) (A2) (B1) (A2) (B1) (A1) (B1) (A2) (B2) (A2)
                 (B1) (B2) (A1) (A1) (A2) (B2) (A1) (B2) (A1) (A2)
                 (B1) (B2) (A1) (B2) (A2) (B2) (A1) (B1) (A1) (A2)
                 (B2) (B2) (B1) (A1) (B2) (A1) (A1) (A2) (B2) (A1)
                 (B2) (A1) (B2) (B2) (A1) (B2) (B2) (A1)
 The electronic state is 1-A1.
 Alpha  occ. eigenvalues --  -88.87007 -10.19949 -10.19948 -10.17916 -10.17868
 Alpha  occ. eigenvalues --   -7.96210  -5.92413  -5.92054  -5.91867  -0.88432
 Alpha  occ. eigenvalues --   -0.73802  -0.72856  -0.56908  -0.55725  -0.52117
 Alpha  occ. eigenvalues --   -0.41953  -0.39967  -0.39237  -0.38677  -0.34860
 Alpha  occ. eigenvalues --   -0.25876  -0.24608
 Alpha virt. eigenvalues --   -0.02396   0.01662   0.02235   0.04223   0.04937
 Alpha virt. eigenvalues --    0.05466   0.08202   0.08289   0.13256   0.16227
 Alpha virt. eigenvalues --    0.16751   0.17062   0.19604   0.19956   0.22419
 Alpha virt. eigenvalues --    0.22588   0.24423   0.28266   0.29306   0.29650
 Alpha virt. eigenvalues --    0.30244   0.31031   0.31099   0.33608   0.35008
 Alpha virt. eigenvalues --    0.37164   0.38632   0.40018   0.44139   0.48444
 Alpha virt. eigenvalues --    0.48763   0.50739   0.52058   0.55187   0.56692
 Alpha virt. eigenvalues --    0.63437   0.65182   0.69118   0.69406   0.78778
 Alpha virt. eigenvalues --    0.80385   0.83455   0.85937   0.90553   0.95140
 Alpha virt. eigenvalues --    0.96064   0.98541   0.98647   1.00219   1.03503
 Alpha virt. eigenvalues --    1.07712   1.08993   1.11182   1.12796   1.13390
 Alpha virt. eigenvalues --    1.13653   1.19637   1.25378   1.29209   1.29593
 Alpha virt. eigenvalues --    1.30042   1.33957   1.34911   1.41962   1.43026
 Alpha virt. eigenvalues --    1.43335   1.44019   1.47145   1.49346   1.52209
 Alpha virt. eigenvalues --    1.62405   1.66662   1.70203   1.72567   1.73167
 Alpha virt. eigenvalues --    1.75760   1.79428   1.82293   1.82918   1.84623
 Alpha virt. eigenvalues --    1.86519   1.92097   1.92447   2.04647   2.07171
 Alpha virt. eigenvalues --    2.10111   2.11044   2.11696   2.13942   2.16398
 Alpha virt. eigenvalues --    2.20544   2.21942   2.24756   2.29984   2.31919
 Alpha virt. eigenvalues --    2.35985   2.43020   2.70795   2.76262   2.97792
 Alpha virt. eigenvalues --    2.98460   3.00469   3.11509   3.17432   3.19566
 Alpha virt. eigenvalues --    3.23630   3.27878   3.29432   3.30998   3.32988
 Alpha virt. eigenvalues --    3.48324   3.49401   3.56033   3.58520   3.60422
 Alpha virt. eigenvalues --    3.63607   3.67452   3.75752   3.79699   3.83404
 Alpha virt. eigenvalues --    3.84417   3.84451   3.98230   3.99294   3.99919
 Alpha virt. eigenvalues --    4.00085   4.01680   4.03116   4.05450   4.06894
 Alpha virt. eigenvalues --    4.10660   4.15443   4.16822   4.17301   4.19864
 Alpha virt. eigenvalues --    4.21605   4.23165   4.23501   4.28590   4.29755
 Alpha virt. eigenvalues --    4.30162   4.36284   4.36339   4.41322   4.42565
 Alpha virt. eigenvalues --    4.43527   4.46820   4.47819   4.49719   4.51224
 Alpha virt. eigenvalues --    4.53427   4.54877   4.59368   4.63195   4.64024
 Alpha virt. eigenvalues --    4.64242   4.73192   4.77671   4.81500   4.83355
 Alpha virt. eigenvalues --    4.86089   5.06400   5.10050   5.11829   5.19711
 Alpha virt. eigenvalues --    5.20120   5.25322   5.26265   5.31385   5.32639
 Alpha virt. eigenvalues --    5.33502   5.51553   5.51682   5.55582   5.62058
 Alpha virt. eigenvalues --    5.64876   5.71627   5.77043   5.77487   5.84831
 Alpha virt. eigenvalues --    5.90281   6.04839   6.13333   6.28312   6.34569
 Alpha virt. eigenvalues --    6.74040   7.66944  26.09336
          Condensed to atoms (all electrons):
               1          2          3          4          5          6
     1  S   15.313050   0.407742   0.407742  -0.101740  -0.101740  -0.026739
     2  C    0.407742   5.001307  -0.181381   0.570015  -0.077053   0.412369
     3  C    0.407742  -0.181381   5.001307  -0.077053   0.570015   0.003133
     4  C   -0.101740   0.570015  -0.077053   4.770804   0.514392  -0.012301
     5  C   -0.101740  -0.077053   0.570015   0.514392   4.770804   0.004067
     6  H   -0.026739   0.412369   0.003133  -0.012301   0.004067   0.544909
     7  H   -0.026739   0.003133   0.412369   0.004067  -0.012301  -0.000073
     8  H    0.009976  -0.039630   0.008986   0.433445  -0.040753  -0.004609
     9  H    0.009976   0.008986  -0.039630  -0.040753   0.433445  -0.000374
               7          8          9
     1  S   -0.026739   0.009976   0.009976
     2  C    0.003133  -0.039630   0.008986
     3  C    0.412369   0.008986  -0.039630
     4  C    0.004067   0.433445  -0.040753
     5  C   -0.012301  -0.040753   0.433445
     6  H   -0.000073  -0.004609  -0.000374
     7  H    0.544909  -0.000374  -0.004609
     8  H   -0.000374   0.603874  -0.003422
     9  H   -0.004609  -0.003422   0.603874
 Mulliken charges:
               1
     1  S    0.108471
     2  C   -0.105488
     3  C   -0.105488
     4  C   -0.060875
     5  C   -0.060875
     6  H    0.079619
     7  H    0.079619
     8  H    0.032508
     9  H    0.032508
 Sum of Mulliken charges =   0.00000
 Mulliken charges with hydrogens summed into heavy atoms:
               1
     1  S    0.108471
     2  C   -0.025869
     3  C   -0.025869
     4  C   -0.028366
     5  C   -0.028366
 APT charges:
               1
     1  S   -0.013419
     2  C   -0.030239
     3  C   -0.030239
     4  C   -0.104644
     5  C   -0.104644
     6  H    0.081036
     7  H    0.081036
     8  H    0.060557
     9  H    0.060557
 Sum of APT charges =  -0.00000
 APT charges with hydrogens summed into heavy atoms:
               1
     1  S   -0.013419
     2  C    0.050797
     3  C    0.050797
     4  C   -0.044088
     5  C   -0.044088
 Electronic spatial extent (au):  <R**2>=            399.8744
 Charge=             -0.0000 electrons
 Dipole moment (field-independent basis, Debye):
    X=              0.0000    Y=              0.0000    Z=             -0.4793  Tot=              0.4793
 Quadrupole moment (field-independent basis, Debye-Ang):
   XX=            -40.4503   YY=            -31.9691   ZZ=            -35.1028
   XY=              0.0000   XZ=              0.0000   YZ=              0.0000
 Traceless Quadrupole moment (field-independent basis, Debye-Ang):
   XX=             -4.6095   YY=              3.8717   ZZ=              0.7379
   XY=              0.0000   XZ=              0.0000   YZ=              0.0000
 Octapole moment (field-independent basis, Debye-Ang**2):
  XXX=              0.0000  YYY=             -0.0000  ZZZ=             -4.8533  XYY=              0.0000
  XXY=             -0.0000  XXZ=              2.2727  XZZ=              0.0000  YZZ=              0.0000
  YYZ=              2.1755  XYZ=             -0.0000
 Hexadecapole moment (field-independent basis, Debye-Ang**3):
 XXXX=            -52.3946 YYYY=           -200.1773 ZZZZ=           -281.0312 XXXY=             -0.0000
 XXXZ=             -0.0000 YYYX=             -0.0000 YYYZ=              0.0000 ZZZX=             -0.0000
 ZZZY=              0.0000 XXYY=            -52.7243 XXZZ=            -62.5540 YYZZ=            -78.3535
 XXYZ=              0.0000 YYXZ=             -0.0000 ZZXY=             -0.0000
 N-N= 2.029022646451D+02 E-N=-1.712328219433D+03  KE= 5.521587139856D+02
 Symmetry A1   KE= 3.979641905235D+02
 Symmetry A2   KE= 2.314372959051D+00
 Symmetry B1   KE= 4.073571433443D+01
 Symmetry B2   KE= 1.111444361687D+02
  Exact polarizability:  37.454   0.000  67.137  -0.000  -0.000  73.179
 Approx polarizability:  58.461   0.000 113.922  -0.000   0.000 129.092
 Calling FoFJK, ICntrl=    100127 FMM=F ISym2X=1 I1Cent= 0 IOpClX= 0 NMat=1 NMatS=1 NMatT=0.
 Full mass-weighted force constant matrix:
 Low frequencies ---   -7.9976   -7.0186   -2.1907    0.0034    0.0048    0.0051
 Low frequencies ---  462.3738  579.1821  616.9850
 Diagonal vibrational polarizability:
        7.0930314       0.3450147       1.2062686
 Harmonic frequencies (cm**-1), IR intensities (KM/Mole), Raman scattering
 activities (A**4/AMU), depolarization ratios for plane and unpolarized
 incident light, reduced masses (AMU), force constants (mDyne/A),
 and normal coordinates:
                      1                      2                      3
                     B1                     A2                     A1
 Frequencies --    462.3738               579.1821               616.9850
 Red. masses --      4.6888                 3.0096                 9.7887
 Frc consts  --      0.5906                 0.5948                 2.1955
 IR Inten    --      0.8418                 0.0000                 0.1563
  Atom  AN      X      Y      Z        X      Y      Z        X      Y      Z
     1  16    -0.16  -0.00  -0.00     0.00  -0.00   0.00    -0.00   0.00   0.41
     2   6     0.33   0.00   0.00    -0.19   0.00  -0.00     0.00  -0.19  -0.21
     3   6     0.33   0.00   0.00     0.19   0.00  -0.00    -0.00   0.19  -0.21
     4   6    -0.15  -0.00   0.00     0.24   0.00  -0.00    -0.00  -0.00  -0.29
     5   6    -0.15   0.00   0.00    -0.24  -0.00  -0.00     0.00   0.00  -0.29
     6   1     0.52   0.00   0.00    -0.06   0.00  -0.00    -0.00  -0.13  -0.42
     7   1     0.52   0.00   0.00     0.06   0.00  -0.00     0.00   0.13  -0.42
     8   1    -0.30  -0.00   0.00     0.64   0.00   0.00    -0.00   0.17  -0.17
     9   1    -0.30  -0.00   0.00    -0.64  -0.00  -0.00     0.00  -0.17  -0.17
                      4                      5                      6
                     A2                     B1                     B2
 Frequencies --    696.4228               727.0788               755.3943
 Red. masses --      1.2628                 1.1093                 7.0665
 Frc consts  --      0.3608                 0.3455                 2.3758
 IR Inten    --      0.0000               137.0886                 0.4279
  Atom  AN      X      Y      Z        X      Y      Z        X      Y      Z
     1  16    -0.00   0.00   0.00     0.01   0.00   0.00    -0.00   0.24  -0.00
     2   6    -0.07   0.00  -0.00    -0.05  -0.00   0.00     0.00  -0.14   0.25
     3   6     0.07  -0.00  -0.00    -0.05   0.00  -0.00     0.00  -0.14  -0.25
     4   6    -0.08   0.00  -0.00    -0.05  -0.00   0.00     0.00  -0.18   0.28
     5   6     0.08  -0.00  -0.00    -0.05  -0.00  -0.00    -0.00  -0.18  -0.28
     6   1     0.68   0.00   0.00     0.51  -0.00  -0.00    -0.00  -0.09   0.05
     7   1    -0.68  -0.00  -0.00     0.51   0.00   0.00     0.00  -0.09  -0.05
     8   1     0.15  -0.00  -0.00     0.48   0.00   0.00    -0.00   0.13   0.50
[...]
                 (B1) (B1) (B1) (B1) (B1) (B1) (B1) (B1) (B1) (B1)
                 (B1) (B1) (B1) (B1) (B1) (B1) (B1) (B1) (B1) (B1)
                 (B1) (B2) (B2) (B2) (B2) (B2) (B2) (B2) (B2) (B2)
                 (B2) (B2) (B2) (B2) (B2) (B2) (B2) (B2) (B2) (B2)
                 (B2) (B2) (B2) (B2) (B2) (B2) (B2) (B2) (B2) (B2)
                 (B2) (B2) (B2) (B2) (B2) (B2) (B2) (B2) (B2) (B2)
                 (B2) (B2) (B2) (B2)
 Requested convergence on RMS density matrix=1.00D-08 within 128 cycles.
 Requested convergence on MAX density matrix=1.00D-06.
 Requested convergence on             energy=1.00D-06.
 No special actions if energy rises.
 SCF Done:  E(ROHF) =  -551.395696440     A.U. after   12 cycles
            NFock= 12  Conv=0.33D-08     -V/T= 2.0003
 <Sx>= 0.0000 <Sy>= 0.0000 <Sz>= 0.0000 <S**2>=-0.0000 S=-0.0000
 <L.S>=  0.00000000000    
 Annihilation of the first spin contaminant:
 S**2 before annihilation    -0.0000,   after     0.0000

 **********************************************************************

            Population analysis using the SCF Density.

 **********************************************************************

 Orbital symmetries:
       Occupied  (A1) (B2) (A1) (A1) (B2) (A1) (B2) (A1) (B1) (A1)
                 (B2) (A1) (A1) (B2) (A1) (B2) (A1) (B2) (B1) (A1)
                 (B1) (A2)
       Virtual   (B2) (A1) (A1) (B2) (A1) (B1) (B1) (A2) (B1) (B2)
                 (A1) (A2) (A1) (B2) (A1) (B1) (B2) (B2) (A1) (B2)
                 (A1) (A2) (A1) (B2) (A1) (B2) (A1) (B2) (A1) (B2)
                 (A1) (B1) (A1) (B1) (B1) (A2) (A1) (B2) (B2) (A1)
                 (B1) (A2) (B2) (A1) (B2) (A1) (A2) (B2) (A1) (A2)
                 (B1) (B2) (A1) (B1) (B2) (A1) (B2) (A1) (B2) (A1)
                 (A2) (B2) (A1) (A1) (B1) (B2) (A1) (B2) (B1) (A1)
                 (B2) (A2) (A1) (B2) (B1) (B2) (A1) (A2) (A1) (B2)
                 (B1) (A1) (A2) (B2) (A1) (B1) (A1) (A2) (B2) (A1)
                 (B2) (B2) (B1) (A1) (A2) (B2) (A1) (B1) (A2) (A1)
                 (B1) (B2) (B1) (A1) (B1) (B2) (A1) (A2) (A1) (B2)
                 (B2) (A2) (B1) (B2) (A1) (A2) (A1) (B1) (A1) (B2)
                 (B1) (A1) (A2) (B2) (B2) (A1) (B2) (A1) (B1) (B1)
                 (A2) (A1) (A1) (B2) (B2) (A1) (A2) (A1) (B1) (B2)
                 (A2) (B1) (B1) (A1) (A2) (B1) (B2) (A1) (A2) (B2)
                 (B2) (A1) (B1) (B2) (A2) (A1) (B2) (A2) (B1) (B2)
                 (A2) (B2) (A1) (A1) (A2) (A1) (A1) (B1) (B2) (B1)
                 (A1) (B2) (A1) (B2) (A1) (B2) (A1) (A2) (B1) (B2)
                 (B1) (A1) (A2) (A1) (B2) (B1) (A2) (B2) (B1) (A1)
                 (B2) (B2) (A1) (A2) (A1) (B2) (B2) (A2) (A1) (B1)
                 (B2) (B2) (A1) (A2) (A1) (A1) (B2) (B2) (A1) (B2)
                 (A1) (A1) (B2) (B2) (B1) (B2) (B1) (A2) (B1) (A1)
                 (A2) (B1) (A1) (A2) (B2) (A1) (A1) (B2) (B1) (A2)
                 (A1) (B2) (A1) (B1) (A2) (B1) (B2) (B1) (A1) (A1)
                 (A2) (B2) (A2) (B1) (A1) (B2) (B2) (B1) (A1) (A1)
                 (A1) (B2) (A2) (B1) (A2) (A1) (A2) (B1) (B2) (B2)
                 (A1) (B2) (B2) (A2) (A1) (B2) (A1) (B2) (A1) (B2)
                 (B2) (A1) (B2) (A1) (B2) (B1) (A2) (B1) (B1) (A2)
                 (A2) (A1) (B1) (A2) (A1) (B2) (A1) (B2) (A1) (B2)
                 (A1) (A1) (B2) (A1) (B2) (B2) (A1) (B2) (B2) (A1)
                 (A2) (B1) (A1) (B2) (A1) (B1) (A2) (B1) (A2) (A1)
                 (A1) (B2) (A1) (B2) (B2) (A1) (B2) (A1) (B2) (A1)
                 (B2) (B1) (A1) (B2)
 The electronic state is 1-A1.
 Alpha  occ. eigenvalues --  -91.98118 -11.26049 -11.26046 -11.23779 -11.23676
 Alpha  occ. eigenvalues --   -8.98245  -6.66367  -6.66332  -6.66272  -1.17136
 Alpha  occ. eigenvalues --   -0.98499  -0.98420  -0.76811  -0.75115  -0.69869
 Alpha  occ. eigenvalues --   -0.57774  -0.55238  -0.52824  -0.52370  -0.47446
 Alpha  occ. eigenvalues --   -0.34626  -0.32894
 Alpha virt. eigenvalues --    0.05052   0.05061   0.05684   0.06786   0.07041
 Alpha virt. eigenvalues --    0.08352   0.09638   0.10596   0.10818   0.11255
 Alpha virt. eigenvalues --    0.12089   0.12186   0.12497   0.13204   0.13913
 Alpha virt. eigenvalues --    0.15490   0.15957   0.17871   0.19982   0.20240
 Alpha virt. eigenvalues --    0.21107   0.21493   0.22295   0.23672   0.26664
 Alpha virt. eigenvalues --    0.28829   0.28976   0.29743   0.35516   0.36284
 Alpha virt. eigenvalues --    0.37484   0.38976   0.41968   0.43425   0.44019
 Alpha virt. eigenvalues --    0.44034   0.44261   0.45523   0.48279   0.48549
 Alpha virt. eigenvalues --    0.50639   0.50901   0.51538   0.51962   0.52453
 Alpha virt. eigenvalues --    0.53476   0.53510   0.57771   0.57976   0.58001
 Alpha virt. eigenvalues --    0.58076   0.62639   0.62640   0.63080   0.66353
 Alpha virt. eigenvalues --    0.66404   0.69846   0.71373   0.72513   0.74014
 Alpha virt. eigenvalues --    0.74023   0.77412   0.79202   0.80241   0.81990
 Alpha virt. eigenvalues --    0.85704   0.87098   0.89145   0.90630   0.91065
 Alpha virt. eigenvalues --    0.98210   0.99985   1.00788   1.01697   1.05632
 Alpha virt. eigenvalues --    1.06188   1.07225   1.08412   1.12414   1.13875
 Alpha virt. eigenvalues --    1.15122   1.17566   1.19711   1.20521   1.23810
 Alpha virt. eigenvalues --    1.28537   1.28658   1.28687   1.30581   1.31279
 Alpha virt. eigenvalues --    1.33593   1.35106   1.35872   1.36087   1.37540
 Alpha virt. eigenvalues --    1.42560   1.43033   1.44358   1.44982   1.45541
 Alpha virt. eigenvalues --    1.49978   1.52665   1.53461   1.55248   1.56806
 Alpha virt. eigenvalues --    1.57096   1.57790   1.60629   1.61327   1.63751
 Alpha virt. eigenvalues --    1.67804   1.69030   1.69892   1.70669   1.71043
 Alpha virt. eigenvalues --    1.72253   1.73433   1.75041   1.80888   1.81230
 Alpha virt. eigenvalues --    1.84250   1.85233   1.87969   1.91248   1.93657
 Alpha virt. eigenvalues --    1.94526   1.94974   1.96488   1.96585   1.98844
 Alpha virt. eigenvalues --    1.99332   1.99445   2.02946   2.03909   2.06855
 Alpha virt. eigenvalues --    2.08421   2.10165   2.12287   2.12922   2.15170
 Alpha virt. eigenvalues --    2.15834   2.18708   2.23430   2.27302   2.28839
 Alpha virt. eigenvalues --    2.29657   2.30303   2.31841   2.32693   2.34312
 Alpha virt. eigenvalues --    2.37601   2.40938   2.41378   2.42496   2.45121
 Alpha virt. eigenvalues --    2.46714   2.48976   2.49085   2.52142   2.56591
 Alpha virt. eigenvalues --    2.58281   2.59593   2.64752   2.67404   2.69517
 Alpha virt. eigenvalues --    2.70678   2.73311   2.75596   2.75977   2.77950
 Alpha virt. eigenvalues --    2.80701   2.81598   2.85991   2.89587   2.91644
 Alpha virt. eigenvalues --    2.93877   2.95720   2.96505   3.04679   3.08140
 Alpha virt. eigenvalues --    3.09274   3.10996   3.11013   3.15148   3.15681
 Alpha virt. eigenvalues --    3.17519   3.23666   3.23744   3.24461   3.24737
 Alpha virt. eigenvalues --    3.33910   3.36315   3.37512   3.38342   3.43774
 Alpha virt. eigenvalues --    3.44404   3.54621   3.59008   3.61470   3.65824
 Alpha virt. eigenvalues --    3.66466   3.68389   3.70116   3.70196   3.77440
 Alpha virt. eigenvalues --    3.83680   3.94541   3.98500   4.00741   4.16205
 Alpha virt. eigenvalues --    4.17455   4.25530   4.27856   4.30959   4.39810
 Alpha virt. eigenvalues --    4.45968   4.46658   4.60165   4.62353   4.63514
 Alpha virt. eigenvalues --    4.65561   4.73647   4.76216   4.79181   4.80220
 Alpha virt. eigenvalues --    4.81354   4.90374   4.91169   4.92005   4.92157
 Alpha virt. eigenvalues --    5.08680   5.15790   5.19714   5.19861   5.22778
 Alpha virt. eigenvalues --    5.25830   5.26982   5.30528   5.34065   5.39953
 Alpha virt. eigenvalues --    5.45256   5.50216   5.54606   5.59359   5.60407
 Alpha virt. eigenvalues --    5.64556   5.71521   5.73670   5.76046   5.83839
 Alpha virt. eigenvalues --    5.93427   5.94142   5.94202   6.06866   6.13729
 Alpha virt. eigenvalues --    6.22361   6.24027   6.27048   6.27380   6.37295
 Alpha virt. eigenvalues --    6.39926   6.44997   6.53514   6.54546   6.55267
 Alpha virt. eigenvalues --    6.72625   6.73125   6.99625   7.11914   7.30968
 Alpha virt. eigenvalues --    7.35349   7.35569   7.40871   7.61513   7.68435
 Alpha virt. eigenvalues --    7.94868   8.09588   8.11050   8.16994   8.31070
 Alpha virt. eigenvalues --    8.42910   8.49057   8.49290   8.62621   8.63585
 Alpha virt. eigenvalues --    8.72999   8.77298   9.01552   9.06293   9.08310
 Alpha virt. eigenvalues --    9.19002   9.43327   9.47803   9.54783   9.72703
 Alpha virt. eigenvalues --    9.78155   9.95781  10.09168  10.22753  19.02559
 Alpha virt. eigenvalues --   19.36841  19.38144  19.64607  19.89699  19.94282
 Alpha virt. eigenvalues --   20.55737  20.73826  20.99963  21.24487  21.30815
 Alpha virt. eigenvalues --   21.52552  21.59797  21.75963  21.82978  22.19859
 Alpha virt. eigenvalues --   22.41373  22.69550  23.38064  23.42935  23.72132
 Alpha virt. eigenvalues --   23.91740  25.74138  26.22381  26.27415
          Condensed to atoms (all electrons):
               1          2          3          4          5          6
     1  S   15.219211   0.358741   0.358741  -0.106390  -0.106390  -0.020112
     2  C    0.358741   5.195929  -0.087162   0.529699  -0.093686   0.413474
     3  C    0.358741  -0.087162   5.195929  -0.093686   0.529699   0.004763
     4  C   -0.106390   0.529699  -0.093686   5.031984   0.428929  -0.008196
     5  C   -0.106390  -0.093686   0.529699   0.428929   5.031984   0.001606
     6  H   -0.020112   0.413474   0.004763  -0.008196   0.001606   0.421400
     7  H   -0.020112   0.004763   0.413474   0.001606  -0.008196  -0.000097
     8  H    0.001769  -0.011930   0.003858   0.431125  -0.018288  -0.004025
     9  H    0.001769   0.003858  -0.011930  -0.018288   0.431125  -0.000083
               7          8          9
     1  S   -0.020112   0.001769   0.001769
     2  C    0.004763  -0.011930   0.003858
     3  C    0.413474   0.003858  -0.011930
     4  C    0.001606   0.431125  -0.018288
     5  C   -0.008196  -0.018288   0.431125
     6  H   -0.000097  -0.004025  -0.000083
     7  H    0.421400  -0.000083  -0.004025
     8  H   -0.000083   0.437956  -0.003194
     9  H   -0.004025  -0.003194   0.437956
          Atomic-Atomic Spin Densities.
               1          2          3          4          5          6
     1  S    0.000000   0.000000   0.000000   0.000000   0.000000   0.000000
     2  C    0.000000   0.000000   0.000000   0.000000   0.000000   0.000000
     3  C    0.000000   0.000000   0.000000   0.000000   0.000000   0.000000
     4  C    0.000000   0.000000   0.000000   0.000000   0.000000   0.000000
     5  C    0.000000   0.000000   0.000000   0.000000   0.000000   0.000000
     6  H    0.000000   0.000000   0.000000   0.000000   0.000000   0.000000
     7  H    0.000000   0.000000   0.000000   0.000000   0.000000   0.000000
     8  H    0.000000   0.000000   0.000000   0.000000   0.000000   0.000000
     9  H    0.000000   0.000000   0.000000   0.000000   0.000000   0.000000
               7          8          9
     1  S    0.000000   0.000000   0.000000
     2  C    0.000000   0.000000   0.000000
     3  C    0.000000   0.000000   0.000000
     4  C    0.000000   0.000000   0.000000
     5  C    0.000000   0.000000   0.000000
     6  H    0.000000   0.000000   0.000000
     7  H    0.000000   0.000000   0.000000
     8  H    0.000000   0.000000   0.000000
     9  H    0.000000   0.000000   0.000000
 Mulliken charges and spin densities:
               1          2
     1  S    0.312774   0.000000
     2  C   -0.313687   0.000000
     3  C   -0.313687   0.000000
     4  C   -0.196782   0.000000
     5  C   -0.196782   0.000000
     6  H    0.191271   0.000000
     7  H    0.191271   0.000000
     8  H    0.162811   0.000000
     9  H    0.162811   0.000000
 Sum of Mulliken charges =  -0.00000   0.00000
 Mulliken charges and spin densities with hydrogens summed into heavy atoms:
               1          2
     1  S    0.312774   0.000000
     2  C   -0.122416   0.000000
     3  C   -0.122416   0.000000
     4  C   -0.033971   0.000000
     5  C   -0.033971   0.000000
 Electronic spatial extent (au):  <R**2>=            400.2761
 Charge=              0.0000 electrons
 Dipole moment (field-independent basis, Debye):
    X=             -0.0000    Y=              0.0000    Z=             -0.7531  Tot=              0.7531
 Quadrupole moment (field-independent basis, Debye-Ang):
   XX=            -41.1963   YY=            -31.6179   ZZ=            -35.2484
   XY=              0.0000   XZ=              0.0000   YZ=              0.0000
 Traceless Quadrupole moment (field-independent basis, Debye-Ang):
   XX=             -5.1754   YY=              4.4029   ZZ=              0.7725
   XY=              0.0000   XZ=              0.0000   YZ=              0.0000
 Octapole moment (field-independent basis, Debye-Ang**2):
  XXX=              0.0000  YYY=              0.0000  ZZZ=             -6.9198  XYY=              0.0000
  XXY=             -0.0000  XXZ=              1.8407  XZZ=              0.0000  YZZ=             -0.0000
  YYZ=              2.5306  XYZ=             -0.0000
 Hexadecapole moment (field-independent basis, Debye-Ang**3):
 XXXX=            -53.7962 YYYY=           -195.9471 ZZZZ=           -280.0950 XXXY=             -0.0000
 XXXZ=             -0.0000 YYYX=             -0.0000 YYYZ=             -0.0000 ZZZX=             -0.0000
 ZZZY=              0.0000 XXYY=            -52.9665 XXZZ=            -63.6979 YYZZ=            -77.3143
 XXYZ=             -0.0000 YYXZ=             -0.0000 ZZXY=             -0.0000
 N-N= 2.029022646451D+02 E-N=-1.710521636031D+03  KE= 5.512038197077D+02
 Symmetry A1   KE= 3.978956359943D+02
 Symmetry A2   KE= 2.134015526468D+00
 Symmetry B1   KE= 4.034186013270D+01
 Symmetry B2   KE= 1.108323080542D+02
 Symmetry A1   SP= 0.000000000000D+00
 Symmetry A2   SP= 0.000000000000D+00
 Symmetry B1   SP= 0.000000000000D+00
 Symmetry B2   SP= 0.000000000000D+00
                          Isotropic Fermi Contact Couplings
        Atom                 a.u.       MegaHertz       Gauss      10(-4) cm-1
     1  S(33)              0.00000       0.00000       0.00000       0.00000
     2  C(13)              0.00000       0.00000       0.00000       0.00000
     3  C(13)              0.00000       0.00000       0.00000       0.00000
     4  C(13)              0.00000       0.00000       0.00000       0.00000
     5  C(13)              0.00000       0.00000       0.00000       0.00000
     6  H(1)               0.00000       0.00000       0.00000       0.00000
     7  H(1)               0.00000       0.00000       0.00000       0.00000
     8  H(1)               0.00000       0.00000       0.00000       0.00000
     9  H(1)               0.00000       0.00000       0.00000       0.00000
 --------------------------------------------------------
       Center         ----  Spin Dipole Couplings  ----
                      3XX-RR        3YY-RR        3ZZ-RR
 --------------------------------------------------------
     1   Atom        0.000000      0.000000      0.000000
     2   Atom        0.000000      0.000000      0.000000
     3   Atom        0.000000      0.000000      0.000000
     4   Atom        0.000000      0.000000      0.000000
     5   Atom        0.000000      0.000000      0.000000
     6   Atom        0.000000      0.000000      0.000000
     7   Atom        0.000000      0.000000      0.000000
     8   Atom        0.000000      0.000000      0.000000
     9   Atom        0.000000      0.000000      0.000000
 --------------------------------------------------------
                        XY            XZ            YZ
 --------------------------------------------------------
     1   Atom        0.000000      0.000000      0.000000
     2   Atom        0.000000      0.000000      0.000000
     3   Atom        0.000000      0.000000      0.000000
     4   Atom        0.000000      0.000000      0.000000
     5   Atom        0.000000      0.000000      0.000000
     6   Atom        0.000000      0.000000      0.000000
     7   Atom        0.000000      0.000000      0.000000
     8   Atom        0.000000      0.000000      0.000000
     9   Atom        0.000000      0.000000      0.000000
 --------------------------------------------------------


 ---------------------------------------------------------------------------------
              Anisotropic Spin Dipole Couplings in Principal Axis System
 ---------------------------------------------------------------------------------

       Atom             a.u.   MegaHertz   Gauss  10(-4) cm-1        Axes

              Baa     0.0000     0.000     0.000     0.000  1.0000  0.0000  0.0000
     1 S(33)  Bbb     0.0000     0.000     0.000     0.000 -0.0000  1.0000  0.0000
              Bcc     0.0000     0.000     0.000     0.000  0.0000  0.0000  1.0000
 
              Baa     0.0000     0.000     0.000     0.000  1.0000  0.0000  0.0000
     2 C(13)  Bbb     0.0000     0.000     0.000     0.000 -0.0000  1.0000  0.0000
              Bcc     0.0000     0.000     0.000     0.000  0.0000  0.0000  1.0000
 
              Baa     0.0000     0.000     0.000     0.000  1.0000  0.0000  0.0000
     3 C(13)  Bbb     0.0000     0.000     0.000     0.000 -0.0000  1.0000  0.0000
              Bcc     0.0000     0.000     0.000     0.000  0.0000  0.0000  1.0000
 
              Baa     0.0000     0.000     0.000     0.000  1.0000  0.0000  0.0000
     4 C(13)  Bbb     0.0000     0.000     0.000     0.000 -0.0000  1.0000  0.0000
              Bcc     0.0000     0.000     0.000     0.000  0.0000  0.0000  1.0000
 
              Baa     0.0000     0.000     0.000     0.000  1.0000  0.0000  0.0000
     5 C(13)  Bbb     0.0000     0.000     0.000     0.000 -0.0000  1.0000  0.0000
              Bcc     0.0000     0.000     0.000     0.000  0.0000  0.0000  1.0000
 
              Baa     0.0000     0.000     0.000     0.000  1.0000  0.0000  0.0000
     6 H(1)   Bbb     0.0000     0.000     0.000     0.000 -0.0000  1.0000  0.0000
              Bcc     0.0000     0.000     0.000     0.000  0.0000  0.0000  1.0000
 
              Baa     0.0000     0.000     0.000     0.000  1.0000  0.0000  0.0000
     7 H(1)   Bbb     0.0000     0.000     0.000     0.000 -0.0000  1.0000  0.0000
              Bcc     0.0000     0.000     0.000     0.000  0.0000  0.0000  1.0000
 
              Baa     0.0000     0.000     0.000     0.000  1.0000  0.0000  0.0000
     8 H(1)   Bbb     0.0000     0.000     0.000     0.000 -0.0000  1.0000  0.0000
              Bcc     0.0000     0.000     0.000     0.000  0.0000  0.0000  1.0000
 
              Baa     0.0000     0.000     0.000     0.000  1.0000  0.0000  0.0000
     9 H(1)   Bbb     0.0000     0.000     0.000     0.000 -0.0000  1.0000  0.0000
              Bcc     0.0000     0.000     0.000     0.000  0.0000  0.0000  1.0000
 

 ---------------------------------------------------------------------------------

 1\1\GINC-GAMBA\SP\ROHF\Gen\C4H4S1\IRIKURA\29-Sep-2023\0\\# rohf/gen ge
 om=check guess=check\\thiophene, ROHF/cc-pVTZ-F12\\0,1\S,0,0.,0.,1.189
 661\C,0,0.,1.236304,-0.007111\C,0,0.,-1.236304,-0.007111\C,0,0.,0.7113
 81,-1.266142\C,0,0.,-0.711381,-1.266142\H,0,0.,2.27286,0.283817\H,0,0.
 ,-2.27286,0.283817\H,0,0.,1.314542,-2.161594\H,0,0.,-1.314542,-2.16159
 4\\Version=ES64L-G16RevB.01\State=1-A1\HF=-551.3956964\RMSD=3.331e-09\
 Dipole=0.,0.,-0.2962875\Quadrupole=-3.847795,3.2734658,0.5743292,0.,0.
 ,0.\PG=C02V [C2(S1),SGV(C4H4)]\\@


 SIGN SEEN IN A RESTAURANT-
 WE RESERVE THE RIGHT TO SERVE REFUSE TO ANYONE.
 Job cpu time:       0 days  0 hours  6 minutes 46.5 seconds.
 Elapsed time:       0 days  0 hours  1 minutes 41.7 seconds.
 File lengths (MBytes):  RWF=     88 Int=      0 D2E=      0 Chk=     11 Scr=      1
 Normal termination of Gaussian 16 at Fri Sep 29 06:36:34 2023.
