 Entering Gaussian System, Link 0=g16
 AtFile(1): pcseg2.gbs
            -H     0
            S   4   1.00
                  0.754732D+02           0.427821D-02
                  0.113575D+02           0.328672D-01
                  0.260081D+01           0.159578D+00
                  0.735503D+00           0.500000D+00
            S   1   1.00
                  0.231761D+00           1.0000000
            S   1   1.00
                  0.741675D-01           1.0000000
            P   1   1.00
                  0.160000D+01           1.0000000
            P   1   1.00
                  0.450000D+00           1.0000000
            D   1   1.00
                  0.125000D+01           1.0000000
            ****
            -C     0
            S   7   1.00
                  0.731999D+04           0.695369D-03
                  0.109818D+04           0.537138D-02
                  0.250014D+03           0.274734D-01
                  0.707586D+02           0.105078D+00
                  0.228595D+02           0.291262D+00
                  0.803936D+01           0.500000D+00
                  0.289309D+01           0.362224D+00
            S   2   1.00
                  0.521640D+01          -0.957844D-01
                  0.556124D+00           0.500000D+00
            S   1   1.00
                  0.228813D+00           1.0000000
            S   1   1.00
                  0.936338D-01           1.0000000
            P   4   1.00
                  0.339855D+02           0.818395D-02
                  0.772957D+01           0.586921D-01
                  0.224954D+01           0.222514D+00
                  0.767681D+00           0.500000D+00
            P   1   1.00
                  0.263283D+00           1.0000000
            P   1   1.00
                  0.848744D-01           1.0000000
            D   1   1.00
                  0.140000D+01           1.0000000
            D   1   1.00
                  0.450000D+00           1.0000000
            F   1   1.00
                  0.950000D+00           1.0000000
            ****
            -O     0
            S   7   1.00
                  0.135887D+05           0.665492D-03
                  0.203847D+04           0.514222D-02
                  0.464041D+03           0.263472D-01
                  0.131339D+03           0.101500D+00
                  0.425340D+02           0.285877D+00
                  0.150429D+02           0.500000D+00
                  0.546616D+01           0.368211D+00
            S   2   1.00
                  0.100915D+02          -0.100084D+00
                  0.110429D+01           0.500000D+00
            S   1   1.00
                  0.448082D+00           1.0000000
            S   1   1.00
                  0.175325D+00           1.0000000
            P   4   1.00
                  0.608220D+02           0.908253D-02
                  0.140332D+02           0.645878D-01
                  0.418244D+01           0.241502D+00
                  0.142490D+01           0.500000D+00
            P   1   1.00
                  0.478741D+00           1.0000000
            P   1   1.00
                  0.146257D+00           1.0000000
            D   1   1.00
                  0.220000D+01           1.0000000
            D   1   1.00
                  0.650000D+00           1.0000000
            F   1   1.00
                  0.110000D+01           1.0000000
            ****
            -N     0
            S   7   1.00
                  0.101643D+05           0.682757D-03
                  0.152481D+04           0.527488D-02
                  0.347119D+03           0.270037D-01
                  0.982389D+02           0.103673D+00
                  0.317799D+02           0.289575D+00
                  0.112240D+02           0.500000D+00
                  0.406611D+01           0.364621D+00
            S   2   1.00
                  0.747898D+01          -0.975681D-01
                  0.805040D+00           0.500000D+00
            S   1   1.00
                  0.324626D+00           1.0000000
            S   1   1.00
                  0.128132D+00           1.0000000
            P   4   1.00
                  0.482704D+02           0.829547D-02
                  0.110815D+02           0.596223D-01
                  0.326643D+01           0.227889D+00
                  0.111680D+01           0.500000D+00
            P   1   1.00
                  0.382049D+00           1.0000000
            P   1   1.00
                  0.121222D+00           1.0000000
            D   1   1.00
                  0.180000D+01           1.0000000
            D   1   1.00
                  0.550000D+00           1.0000000
            F   1   1.00
                  0.102000D+01           1.0000000
            ****
            -F     0
            S   7   1.00
                  0.174507D+05           0.655972D-03
                  0.261768D+04           0.506944D-02
                  0.595857D+03           0.259899D-01
                  0.168651D+03           0.100353D+00
                  0.546654D+02           0.284095D+00
                  0.193717D+02           0.500000D+00
                  0.706202D+01           0.370721D+00
            S   2   1.00
                  0.131197D+02          -0.101997D+00
                  0.145046D+01           0.500000D+00
            S   1   1.00
                  0.588255D+00           1.0000000
            S   1   1.00
                  0.227960D+00           1.0000000
            P   4   1.00
                  0.779407D+02           0.931135D-02
                  0.180425D+02           0.663964D-01
                  0.542342D+01           0.246386D+00
                  0.184876D+01           0.500000D+00
            P   1   1.00
                  0.617455D+00           1.0000000
            P   1   1.00
                  0.185496D+00           1.0000000
            D   1   1.00
                  0.280000D+01           1.0000000
            D   1   1.00
                  0.800000D+00           1.0000000
            F   1   1.00
                  0.120000D+01           1.0000000
            ****
            -Cl     0
            S   8   1.00
                  0.154272D+06           0.222473D-03
                  0.231232D+05           0.172590D-02
                  0.526257D+04           0.899286D-02
                  0.148995D+04           0.367724D-01
                  0.485417D+03           0.121446D+00
                  0.174634D+03           0.304148D+00
                  0.672393D+02           0.500000D+00
                  0.265780D+02           0.360252D+00
            S   3   1.00
                  0.131826D+03          -0.531330D-01
                  0.400703D+02          -0.233346D+00
                  0.789448D+01           0.500000D+00
            S   2   1.00
                  0.427711D+01           0.500000D+00
                  0.196233D+01           0.370517D+00
            S   1   1.00
                  0.520793D+00           1.0000000
            S   1   1.00
                  0.181633D+00           1.0000000
            P   7   1.00
                  0.124440D+04           0.988206D-03
                  0.295109D+03           0.829674D-02
                  0.947224D+02           0.430906D-01
                  0.352588D+02           0.148443D+00
                  0.144211D+02           0.344744D+00
                  0.610371D+01           0.500000D+00
                  0.258886D+01           0.348278D+00
            P   2   1.00
                  0.109447D+02          -0.196768D-01
                  0.104413D+01           0.500000D+00
            P   1   1.00
                  0.376184D+00           1.0000000
            P   1   1.00
                  0.120613D+00           1.0000000
            D   1   1.00
                  0.231000D+01           1.0000000
            D   1   1.00
                  0.520000D+00           1.0000000
            F   1   1.00
                  0.720000D+00           1.0000000
            ****
            -S     0
            S   8   1.00
                  0.134700D+06           0.226231D-03
                  0.201904D+05           0.175488D-02
                  0.459528D+04           0.914190D-02
                  0.130109D+04           0.373551D-01
                  0.423902D+03           0.123121D+00
                  0.152485D+03           0.306801D+00
                  0.586925D+02           0.500000D+00
                  0.231461D+02           0.354358D+00
            S   3   1.00
                  0.116327D+03          -0.491772D-01
                  0.352841D+02          -0.215962D+00
                  0.677831D+01           0.500000D+00
            S   2   1.00
                  0.360404D+01           0.500000D+00
                  0.164871D+01           0.366278D+00
            S   1   1.00
                  0.421821D+00           1.0000000
            S   1   1.00
                  0.147554D+00           1.0000000
            P   7   1.00
                  0.104863D+04           0.105273D-02
                  0.248717D+03           0.879338D-02
                  0.797887D+02           0.453358D-01
                  0.296023D+02           0.154476D+00
                  0.120627D+02           0.352366D+00
                  0.507628D+01           0.500000D+00
                  0.213375D+01           0.346429D+00
            P   2   1.00
                  0.928958D+01          -0.185932D-01
                  0.837819D+00           0.500000D+00
            P   1   1.00
                  0.301495D+00           1.0000000
            P   1   1.00
                  0.974740D-01           1.0000000
            D   1   1.00
                  0.210000D+01           1.0000000
            D   1   1.00
                  0.480000D+00           1.0000000
            F   1   1.00
                  0.660000D+00           1.0000000
            ****
            -Br     0
            S    10   1.00
                  0.233625D+07           0.532336D-04
                  0.349961D+06           0.413715D-03
                  0.796444D+05           0.217123D-02
                  0.225555D+05           0.910109D-02
                  0.735546D+04           0.323789D-01
                  0.265352D+04           0.988755D-01
                  0.103517D+04           0.248138D+00
                  0.422205D+03           0.474328D+00
                  0.180035D+03           0.500000D+00
                  0.793308D+02           0.187769D+00
            S    4   1.00
                  0.620834D+03          -0.226511D-01
                  0.190829D+03          -0.109497D+00
                  0.312505D+02           0.500000D+00
                  0.135270D+02           0.492812D+00
            S    2   1.00
                  0.216097D+02          -0.165418D+00
                  0.372566D+01           0.500000D+00
            S    1   1.00
                  0.169770D+01           1.0000000
            S    1   1.00
                  0.489332D+00           1.0000000
            S    1   1.00
                  0.175712D+00           1.0000000
            P    8   1.00
                  0.960829D+04           0.478974D-03
                  0.227618D+04           0.417853D-02
                  0.736723D+03           0.229315D-01
                  0.281579D+03           0.892653D-01
                  0.118395D+03           0.255288D+00
                  0.527481D+02           0.479074D+00
                  0.245098D+02           0.500000D+00
                  0.112009D+02           0.200944D+00
            P    4   1.00
                  0.587849D+02          -0.189674D-01
                  0.918962D+01           0.264104D+00
                  0.413895D+01           0.500000D+00
                  0.184225D+01           0.319316D+00
            P    1   1.00
                  0.713862D+00           1.0000000
            P    1   1.00
                  0.274232D+00           1.0000000
            P    1   1.00
                  0.944411D-01           1.0000000
            D    7   1.00
                  0.398470D+03           0.204066D-02
                  0.118967D+03           0.175171D-01
                  0.450197D+02           0.829708D-01
                  0.190320D+02           0.236284D+00
                  0.855686D+01           0.428468D+00
                  0.382950D+01           0.500000D+00
                  0.166291D+01           0.349360D+00
            D    1   1.00
                  0.672953D+00           1.0000000
            D    1   1.00
                  0.252000D+00           1.0000000
            F    1   1.00
                  0.530000D+00           1.0000000
            ****
            -Si     0
            S    8   1.00
                  0.996133D+05           0.235546D-03
                  0.149311D+05           0.182707D-02
                  0.339820D+04           0.951425D-02
                  0.962140D+03           0.388172D-01
                  0.313430D+03           0.127328D+00
                  0.112683D+03           0.313522D+00
                  0.433372D+02           0.500000D+00
                  0.170029D+02           0.340347D+00
            S    3   1.00
                  0.884208D+02          -0.404451D-01
                  0.266756D+02          -0.178059D+00
                  0.479640D+01           0.500000D+00
            S    2   1.00
                  0.239385D+01           0.500000D+00
                  0.108333D+01           0.338016D+00
            S    1   1.00
                  0.252420D+00           1.0000000
            S    1   1.00
                  0.891210D-01           1.0000000
            P    7   1.00
                  0.709901D+03           0.123028D-02
                  0.168426D+03           0.101366D-01
                  0.539946D+02           0.511840D-01
                  0.198646D+02           0.169967D+00
                  0.801369D+01           0.370717D+00
                  0.331870D+01           0.500000D+00
                  0.136112D+01           0.344128D+00
            P    2   1.00
                  0.622158D+01          -0.166609D-01
                  0.503049D+00           0.500000D+00
            P    1   1.00
                  0.179848D+00           1.0000000
            P    1   1.00
                  0.591912D-01           1.0000000
            D    1   1.00
                  0.168000D+01           1.0000000
            D    1   1.00
                  0.380000D+00           1.0000000
            F    1   1.00
                  0.540000D+00           1.0000000
            ****
            -P     0
            S    8   1.00
                  0.116416D+06           0.230715D-03
                  0.174500D+05           0.178960D-02
                  0.397149D+04           0.932116D-02
                  0.112447D+04           0.380591D-01
                  0.366347D+03           0.125148D+00
                  0.131757D+03           0.310022D+00
                  0.506988D+02           0.500000D+00
                  0.199436D+02           0.347528D+00
            S    3   1.00
                  0.101878D+03          -0.446755D-01
                  0.308249D+02          -0.196376D+00
                  0.573688D+01           0.500000D+00
            S    2   1.00
                  0.296868D+01           0.500000D+00
                  0.135315D+01           0.355098D+00
            S    1   1.00
                  0.332196D+00           1.0000000
            S    1   1.00
                  0.116229D+00           1.0000000
            P    7   1.00
                  0.873928D+03           0.112375D-02
                  0.207298D+03           0.933330D-02
                  0.664628D+02           0.477213D-01
                  0.245665D+02           0.160733D+00
                  0.996820D+01           0.359760D+00
                  0.416536D+01           0.500000D+00
                  0.173022D+01           0.346593D+00
            P    2   1.00
                  0.772530D+01          -0.175718D-01
                  0.657252D+00           0.500000D+00
            P    1   1.00
                  0.239903D+00           1.0000000
            P    1   1.00
                  0.800988D-01           1.0000000
            D    1   1.00
                  0.189000D+01           1.0000000
            D    1   1.00
                  0.430000D+00           1.0000000
            F    1   1.00
                  0.600000D+00           1.0000000
            ****
            
 Initial command:
 /usr/local/apps/g16_b01_avx/g16/l1.exe "/wrk/irikura/Gau-174788.inp" -scrdir="/wrk/irikura/"
 Entering Link 1 = /usr/local/apps/g16_b01_avx/g16/l1.exe PID=    174790.
  
 Copyright (c) 1988-2017, Gaussian, Inc.  All Rights Reserved.
  
 This is part of the Gaussian(R) 16 program.  It is based on
 the Gaussian(R) 09 system (copyright 2009, Gaussian, Inc.),
 the Gaussian(R) 03 system (copyright 2003, Gaussian, Inc.),
 the Gaussian(R) 98 system (copyright 1998, Gaussian, Inc.),
 the Gaussian(R) 94 system (copyright 1995, Gaussian, Inc.),
 the Gaussian 92(TM) system (copyright 1992, Gaussian, Inc.),
 the Gaussian 90(TM) system (copyright 1990, Gaussian, Inc.),
 the Gaussian 88(TM) system (copyright 1988, Gaussian, Inc.),
 the Gaussian 86(TM) system (copyright 1986, Carnegie Mellon
 University), and the Gaussian 82(TM) system (copyright 1983,
 Carnegie Mellon University). Gaussian is a federally registered
 trademark of Gaussian, Inc.
  
 This software contains proprietary and confidential information,
 including trade secrets, belonging to Gaussian, Inc.
  
 This software is provided under written license and may be
 used, copied, transmitted, or stored only in accord with that
 written license.
  
 The following legend is applicable only to US Government
 contracts under FAR:
  
                    RESTRICTED RIGHTS LEGEND
  
 Use, reproduction and disclosure by the US Government is
 subject to restrictions as set forth in subparagraphs (a)
 and (c) of the Commercial Computer Software - Restricted
 Rights clause in FAR 52.227-19.
  
 Gaussian, Inc.
 340 Quinnipiac St., Bldg. 40, Wallingford CT 06492
  
  
 ---------------------------------------------------------------
 Warning -- This program may not be used in any manner that
 competes with the business of Gaussian, Inc. or will provide
 assistance to any competitor of Gaussian, Inc.  The licensee
 of this program is prohibited from giving any competitor of
 Gaussian, Inc. access to this program.  By using this program,
 the user acknowledges that Gaussian, Inc. is engaged in the
 business of creating and licensing software in the field of
 computational chemistry and represents and warrants to the
 licensee that it is not a competitor of Gaussian, Inc. and that
 it will not use this program in any manner prohibited above.
 ---------------------------------------------------------------
  

 Cite this work as:
 Gaussian 16, Revision B.01,
 M. J. Frisch, G. W. Trucks, H. B. Schlegel, G. E. Scuseria, 
 M. A. Robb, J. R. Cheeseman, G. Scalmani, V. Barone, 
 G. A. Petersson, H. Nakatsuji, X. Li, M. Caricato, A. V. Marenich, 
 J. Bloino, B. G. Janesko, R. Gomperts, B. Mennucci, H. P. Hratchian, 
 J. V. Ortiz, A. F. Izmaylov, J. L. Sonnenberg, D. Williams-Young, 
 F. Ding, F. Lipparini, F. Egidi, J. Goings, B. Peng, A. Petrone, 
 T. Henderson, D. Ranasinghe, V. G. Zakrzewski, J. Gao, N. Rega, 
 G. Zheng, W. Liang, M. Hada, M. Ehara, K. Toyota, R. Fukuda, 
 J. Hasegawa, M. Ishida, T. Nakajima, Y. Honda, O. Kitao, H. Nakai, 
 T. Vreven, K. Throssell, J. A. Montgomery, Jr., J. E. Peralta, 
 F. Ogliaro, M. J. Bearpark, J. J. Heyd, E. N. Brothers, K. N. Kudin, 
 V. N. Staroverov, T. A. Keith, R. Kobayashi, J. Normand, 
 K. Raghavachari, A. P. Rendell, J. C. Burant, S. S. Iyengar, 
 J. Tomasi, M. Cossi, J. M. Millam, M. Klene, C. Adamo, R. Cammi, 
 J. W. Ochterski, R. L. Martin, K. Morokuma, O. Farkas, 
 J. B. Foresman, and D. J. Fox, Gaussian, Inc., Wallingford CT, 2016.
 
 ******************************************
 Gaussian 16:  ES64L-G16RevB.01 20-Dec-2017
                28-Sep-2023 
 ******************************************
 %chk=THP.chk
 %mem=1000mw
 %nprocs=4
 Will use up to    4 processors via shared memory.
 ---------------------------------------
 # b3lyp/gen opt freq CPHF(Grid=OneStep)
 ---------------------------------------
 1/18=20,19=15,26=3,38=1/1,3;
 2/9=110,12=2,17=6,18=5,40=1/2;
 3/5=7,11=2,25=1,30=1,71=1,74=-5/1,2,3;
 4//1;
 5/5=2,38=5/2;
 6/7=2,8=2,9=2,10=2,28=1/1;
 7//1,2,3,16;
 1/18=20,19=15,26=3/3(2);
 2/9=110/2;
 99//99;
 2/9=110/2;
 3/5=7,6=1,11=2,25=1,30=1,71=1,74=-5,82=7/1,2,3;
 4/5=5,16=3,69=1/1;
 5/5=2,38=5/2;
 7//1,2,3,16;
 1/18=20,19=15,26=3/3(-5);
 2/9=110/2;
 6/7=2,8=2,9=2,10=2,19=2,28=1/1;
 99/9=1/99;
 ------------------------------
 tetrahydropyran, B3LYP/pcseg-2
 ------------------------------
 Symbolic Z-matrix:
 Charge =  0 Multiplicity = 1
 O                    -0.65525  -1.2671    0. 
 C                     0.62119   1.32616   0. 
 H                     1.69262   1.09995   0. 
 H                     0.5315    2.41392   0. 
 C                    -0.0211    0.72945   1.25648 
 C                    -0.0211    0.72945  -1.25648 
 C                    -0.0211   -0.79444  -1.18138 
 C                    -0.0211   -0.79444   1.18138 
 H                     0.50852   1.05094   2.15648 
 H                     0.50852   1.05094  -2.15648 
 H                    -1.05346   1.07773   1.34604 
 H                    -1.05346   1.07773  -1.34604 
 H                     1.01186  -1.17121  -1.21843 
 H                     1.01186  -1.17121   1.21843 
 H                    -0.56838  -1.23457  -2.01405 
 H                    -0.56838  -1.23457   2.01405 
 

 GradGradGradGradGradGradGradGradGradGradGradGradGradGradGradGradGradGrad
 Berny optimization.
 Initialization pass.
                           ----------------------------
                           !    Initial Parameters    !
                           ! (Angstroms and Degrees)  !
 --------------------------                            --------------------------
 ! Name  Definition              Value          Derivative Info.                !
 --------------------------------------------------------------------------------
 ! R1    R(1,7)                  1.4217         estimate D2E/DX2                !
 ! R2    R(1,8)                  1.4217         estimate D2E/DX2                !
 ! R3    R(2,3)                  1.095          estimate D2E/DX2                !
 ! R4    R(2,4)                  1.0915         estimate D2E/DX2                !
 ! R5    R(2,5)                  1.5321         estimate D2E/DX2                !
 ! R6    R(2,6)                  1.5321         estimate D2E/DX2                !
 ! R7    R(5,8)                  1.5257         estimate D2E/DX2                !
 ! R8    R(5,9)                  1.0926         estimate D2E/DX2                !
 ! R9    R(5,11)                 1.0932         estimate D2E/DX2                !
 ! R10   R(6,7)                  1.5257         estimate D2E/DX2                !
 ! R11   R(6,10)                 1.0926         estimate D2E/DX2                !
 ! R12   R(6,12)                 1.0932         estimate D2E/DX2                !
 ! R13   R(7,13)                 1.1001         estimate D2E/DX2                !
 ! R14   R(7,15)                 1.0893         estimate D2E/DX2                !
 ! R15   R(8,14)                 1.1001         estimate D2E/DX2                !
 ! R16   R(8,16)                 1.0893         estimate D2E/DX2                !
 ! A1    A(7,1,8)              112.3965         estimate D2E/DX2                !
 ! A2    A(3,2,4)              106.6354         estimate D2E/DX2                !
 ! A3    A(3,2,5)              109.2519         estimate D2E/DX2                !
 ! A4    A(3,2,6)              109.2519         estimate D2E/DX2                !
 ! A5    A(4,2,5)              110.714          estimate D2E/DX2                !
 ! A6    A(4,2,6)              110.714          estimate D2E/DX2                !
 ! A7    A(5,2,6)              110.1899         estimate D2E/DX2                !
 ! A8    A(2,5,8)              110.4037         estimate D2E/DX2                !
 ! A9    A(2,5,9)              110.9603         estimate D2E/DX2                !
 ! A10   A(2,5,11)             109.8155         estimate D2E/DX2                !
 ! A11   A(8,5,9)              109.5372         estimate D2E/DX2                !
 ! A12   A(8,5,11)             108.7981         estimate D2E/DX2                !
 ! A13   A(9,5,11)             107.2486         estimate D2E/DX2                !
 ! A14   A(2,6,7)              110.4037         estimate D2E/DX2                !
 ! A15   A(2,6,10)             110.9603         estimate D2E/DX2                !
 ! A16   A(2,6,12)             109.8155         estimate D2E/DX2                !
 ! A17   A(7,6,10)             109.5372         estimate D2E/DX2                !
 ! A18   A(7,6,12)             108.7981         estimate D2E/DX2                !
 ! A19   A(10,6,12)            107.2486         estimate D2E/DX2                !
 ! A20   A(1,7,6)              111.8982         estimate D2E/DX2                !
 ! A21   A(1,7,13)             109.447          estimate D2E/DX2                !
 ! A22   A(1,7,15)             106.0674         estimate D2E/DX2                !
 ! A23   A(6,7,13)             109.9015         estimate D2E/DX2                !
 ! A24   A(6,7,15)             111.465          estimate D2E/DX2                !
 ! A25   A(13,7,15)            107.9151         estimate D2E/DX2                !
 ! A26   A(1,8,5)              111.8982         estimate D2E/DX2                !
 ! A27   A(1,8,14)             109.447          estimate D2E/DX2                !
 ! A28   A(1,8,16)             106.0674         estimate D2E/DX2                !
 ! A29   A(5,8,14)             109.9015         estimate D2E/DX2                !
 ! A30   A(5,8,16)             111.465          estimate D2E/DX2                !
 ! A31   A(14,8,16)            107.9151         estimate D2E/DX2                !
 ! D1    D(8,1,7,6)            -59.6656         estimate D2E/DX2                !
 ! D2    D(8,1,7,13)            62.4071         estimate D2E/DX2                !
 ! D3    D(8,1,7,15)           178.5858         estimate D2E/DX2                !
 ! D4    D(7,1,8,5)             59.6656         estimate D2E/DX2                !
 ! D5    D(7,1,8,14)           -62.4071         estimate D2E/DX2                !
 ! D6    D(7,1,8,16)          -178.5858         estimate D2E/DX2                !
 ! D7    D(3,2,5,8)            -68.7099         estimate D2E/DX2                !
 ! D8    D(3,2,5,9)             52.9299         estimate D2E/DX2                !
 ! D9    D(3,2,5,11)           171.3248         estimate D2E/DX2                !
 ! D10   D(4,2,5,8)            174.1437         estimate D2E/DX2                !
 ! D11   D(4,2,5,9)            -64.2164         estimate D2E/DX2                !
 ! D12   D(4,2,5,11)            54.1785         estimate D2E/DX2                !
 ! D13   D(6,2,5,8)             51.3264         estimate D2E/DX2                !
 ! D14   D(6,2,5,9)            172.9663         estimate D2E/DX2                !
 ! D15   D(6,2,5,11)           -68.6388         estimate D2E/DX2                !
 ! D16   D(3,2,6,7)             68.7099         estimate D2E/DX2                !
 ! D17   D(3,2,6,10)           -52.9299         estimate D2E/DX2                !
 ! D18   D(3,2,6,12)          -171.3248         estimate D2E/DX2                !
 ! D19   D(4,2,6,7)           -174.1437         estimate D2E/DX2                !
 ! D20   D(4,2,6,10)            64.2164         estimate D2E/DX2                !
 ! D21   D(4,2,6,12)           -54.1785         estimate D2E/DX2                !
 ! D22   D(5,2,6,7)            -51.3264         estimate D2E/DX2                !
 ! D23   D(5,2,6,10)          -172.9663         estimate D2E/DX2                !
 ! D24   D(5,2,6,12)            68.6388         estimate D2E/DX2                !
 ! D25   D(2,5,8,1)            -55.3032         estimate D2E/DX2                !
 ! D26   D(2,5,8,14)            66.5088         estimate D2E/DX2                !
 ! D27   D(2,5,8,16)          -173.8955         estimate D2E/DX2                !
 ! D28   D(9,5,8,1)           -177.7814         estimate D2E/DX2                !
 ! D29   D(9,5,8,14)           -55.9693         estimate D2E/DX2                !
 ! D30   D(9,5,8,16)            63.6263         estimate D2E/DX2                !
 ! D31   D(11,5,8,1)            65.2727         estimate D2E/DX2                !
 ! D32   D(11,5,8,14)         -172.9152         estimate D2E/DX2                !
 ! D33   D(11,5,8,16)          -53.3196         estimate D2E/DX2                !
 ! D34   D(2,6,7,1)             55.3032         estimate D2E/DX2                !
 ! D35   D(2,6,7,13)           -66.5088         estimate D2E/DX2                !
 ! D36   D(2,6,7,15)           173.8955         estimate D2E/DX2                !
 ! D37   D(10,6,7,1)           177.7814         estimate D2E/DX2                !
 ! D38   D(10,6,7,13)           55.9693         estimate D2E/DX2                !
 ! D39   D(10,6,7,15)          -63.6263         estimate D2E/DX2                !
 ! D40   D(12,6,7,1)           -65.2727         estimate D2E/DX2                !
 ! D41   D(12,6,7,13)          172.9152         estimate D2E/DX2                !
 ! D42   D(12,6,7,15)           53.3196         estimate D2E/DX2                !
 --------------------------------------------------------------------------------
 Trust Radius=3.00D-01 FncErr=1.00D-07 GrdErr=1.00D-06 EigMax=2.50D+02 EigMin=1.00D-04
 Number of steps in this run=     99 maximum allowed number of steps=    100.
 GradGradGradGradGradGradGradGradGradGradGradGradGradGradGradGradGradGrad

                          Input orientation:                          
 ---------------------------------------------------------------------
 Center     Atomic      Atomic             Coordinates (Angstroms)
 Number     Number       Type             X           Y           Z
 ---------------------------------------------------------------------
      1          8           0       -0.655248   -1.267096    0.000000
      2          6           0        0.621190    1.326160    0.000000
      3          1           0        1.692615    1.099949    0.000000
      4          1           0        0.531500    2.413921    0.000000
      5          6           0       -0.021098    0.729452    1.256478
      6          6           0       -0.021098    0.729452   -1.256478
      7          6           0       -0.021098   -0.794439   -1.181380
      8          6           0       -0.021098   -0.794439    1.181380
      9          1           0        0.508516    1.050940    2.156482
     10          1           0        0.508516    1.050940   -2.156482
     11          1           0       -1.053457    1.077733    1.346035
     12          1           0       -1.053457    1.077733   -1.346035
     13          1           0        1.011856   -1.171214   -1.218431
     14          1           0        1.011856   -1.171214    1.218431
     15          1           0       -0.568378   -1.234568   -2.014054
     16          1           0       -0.568378   -1.234568    2.014054
 ---------------------------------------------------------------------
                    Distance matrix (angstroms):
                    1          2          3          4          5
     1  O    0.000000
     2  C    2.890376   0.000000
     3  H    3.333971   1.095045   0.000000
     4  H    3.867591   1.091452   1.753485   0.000000
     5  C    2.442762   1.532100   2.157039   2.172910   0.000000
     6  C    2.442762   1.532100   2.157039   2.172910   2.512956
     7  C    1.421693   2.511002   2.814459   3.463322   2.874960
     8  C    1.421693   2.511002   2.814459   3.463322   1.525740
     9  H    3.373137   2.176891   2.460672   2.551208   1.092636
    10  H    3.373137   2.176891   2.460672   2.551208   3.468738
    11  H    2.732875   2.162861   3.058303   2.471699   1.093200
    12  H    2.732875   2.162861   3.058303   2.471699   2.821372
    13  H    2.067124   2.806077   2.665743   3.816872   3.287050
    14  H    2.067124   2.806077   2.665743   3.816872   2.163556
    15  H    2.016189   3.468258   3.823411   4.310176   3.853994
    16  H    2.016189   3.468258   3.823411   4.310176   2.175043
                    6          7          8          9         10
     6  C    0.000000
     7  C    1.525740   0.000000
     8  C    2.874960   2.362760   0.000000
     9  H    3.468738   3.850615   2.153309   0.000000
    10  H    1.092636   2.153309   3.850615   4.312964   0.000000
    11  H    2.821372   3.310381   2.144272   1.759915   3.835114
    12  H    1.093200   2.144272   3.310381   3.835114   1.759915
    13  H    2.163556   1.100148   2.639706   4.072021   2.463993
    14  H    3.287050   2.639706   1.100148   2.463993   4.072021
    15  H    2.175043   1.089300   3.271701   4.876127   2.530520
    16  H    3.853994   3.271701   1.089300   2.530520   4.876127
                   11         12         13         14         15
    11  H    0.000000
    12  H    2.692070   0.000000
    13  H    3.987451   3.056070   0.000000
    14  H    3.056070   3.987451   2.436862   0.000000
    15  H    4.107583   2.455257   1.770358   3.598626   0.000000
    16  H    2.455257   4.107583   3.598626   1.770358   4.028108
                   16
    16  H    0.000000
 Stoichiometry    C5H10O
 Framework group  CS[SG(CH2O),X(C4H8)]
 Deg. of freedom    23
 Full point group                 CS      NOp   2
 Largest Abelian subgroup         CS      NOp   2
 Largest concise Abelian subgroup CS      NOp   2
                         Standard orientation:                         
 ---------------------------------------------------------------------
 Center     Atomic      Atomic             Coordinates (Angstroms)
 Number     Number       Type             X           Y           Z
 ---------------------------------------------------------------------
      1          8           0       -0.655248   -1.267096    0.000000
      2          6           0        0.621190    1.326160   -0.000000
      3          1           0        1.692615    1.099949    0.000000
      4          1           0        0.531500    2.413921   -0.000000
      5          6           0       -0.021098    0.729452    1.256478
      6          6           0       -0.021098    0.729452   -1.256478
      7          6           0       -0.021098   -0.794439   -1.181380
      8          6           0       -0.021098   -0.794439    1.181380
      9          1           0        0.508516    1.050940    2.156482
     10          1           0        0.508516    1.050940   -2.156482
     11          1           0       -1.053457    1.077733    1.346035
     12          1           0       -1.053457    1.077733   -1.346035
     13          1           0        1.011856   -1.171214   -1.218431
     14          1           0        1.011856   -1.171214    1.218431
     15          1           0       -0.568378   -1.234568   -2.014054
     16          1           0       -0.568378   -1.234568    2.014054
 ---------------------------------------------------------------------
 Rotational constants (GHZ):           4.6636296           4.5035882           2.5915479
 General basis read from cards:  (5D, 7F)
 There are   200 symmetry adapted cartesian basis functions of A'  symmetry.
 There are   160 symmetry adapted cartesian basis functions of A"  symmetry.
 There are   176 symmetry adapted basis functions of A'  symmetry.
 There are   144 symmetry adapted basis functions of A"  symmetry.
   320 basis functions,   486 primitive gaussians,   360 cartesian basis functions
    24 alpha electrons       24 beta electrons
       nuclear repulsion energy       259.9487393398 Hartrees.
 NAtoms=   16 NActive=   16 NUniq=   10 SFac= 2.56D+00 NAtFMM=   60 NAOKFM=F Big=F
 Integral buffers will be    131072 words long.
 Raffenetti 2 integral format.
 Two-electron integral symmetry is turned on.
 One-electron integrals computed using PRISM.
 NBasis=   320 RedAO= T EigKep=  1.96D-04  NBF=   176   144
 NBsUse=   320 1.00D-06 EigRej= -1.00D+00 NBFU=   176   144
 ExpMin= 7.42D-02 ExpMax= 1.36D+04 ExpMxC= 4.64D+02 IAcc=3 IRadAn=         5 AccDes= 0.00D+00
 Harris functional with IExCor=  402 and IRadAn=       5 diagonalized for initial guess.
 HarFok:  IExCor=  402 AccDes= 0.00D+00 IRadAn=         5 IDoV= 1 UseB2=F ITyADJ=14
 ICtDFT=  3500011 ScaDFX=  1.000000  1.000000  1.000000  1.000000
 FoFCou: FMM=F IPFlag=           0 FMFlag=      100000 FMFlg1=           0
         NFxFlg=           0 DoJE=T BraDBF=F KetDBF=T FulRan=T
         wScrn=  0.000000 ICntrl=       500 IOpCl=  0 I1Cent=   200000004 NGrid=           0
         NMat0=    1 NMatS0=      1 NMatT0=    0 NMatD0=    1 NMtDS0=    0 NMtDT0=    0
 Petite list used in FoFCou.
 Initial guess orbital symmetries:
       Occupied  (A') (A') (A") (A') (A") (A') (A') (A') (A") (A')
                 (A") (A') (A') (A") (A') (A') (A") (A") (A') (A")
                 (A') (A") (A') (A')
       Virtual   (A') (A') (A') (A") (A') (A") (A') (A") (A") (A')
                 (A') (A') (A") (A") (A') (A") (A') (A") (A') (A")
                 (A') (A") (A') (A') (A") (A") (A') (A') (A') (A")
                 (A') (A') (A') (A") (A") (A') (A") (A') (A") (A')
                 (A') (A") (A') (A') (A") (A') (A") (A') (A") (A")
                 (A') (A') (A') (A") (A") (A') (A') (A") (A') (A")
                 (A') (A") (A') (A") (A') (A") (A') (A') (A") (A')
                 (A') (A") (A") (A') (A") (A') (A") (A') (A') (A")
                 (A') (A') (A") (A') (A") (A') (A') (A") (A") (A')
                 (A') (A") (A') (A") (A") (A") (A') (A') (A") (A')
                 (A') (A") (A') (A") (A') (A") (A') (A") (A') (A')
                 (A') (A") (A") (A') (A") (A') (A") (A') (A') (A")
                 (A') (A") (A') (A") (A") (A') (A") (A') (A') (A")
                 (A') (A') (A') (A") (A') (A") (A') (A") (A') (A")
                 (A') (A") (A") (A') (A') (A") (A') (A") (A') (A')
                 (A") (A') (A") (A') (A") (A") (A') (A') (A") (A")
                 (A') (A') (A') (A") (A') (A") (A') (A") (A") (A')
                 (A") (A') (A') (A") (A") (A') (A') (A") (A') (A')
                 (A") (A') (A") (A') (A") (A') (A") (A') (A") (A")
                 (A') (A") (A') (A') (A") (A') (A") (A') (A") (A')
                 (A") (A') (A') (A") (A') (A') (A") (A') (A") (A")
                 (A') (A") (A') (A") (A') (A") (A') (A") (A') (A")
                 (A') (A") (A') (A') (A") (A') (A") (A') (A") (A')
                 (A") (A') (A') (A') (A") (A") (A") (A') (A") (A')
                 (A') (A") (A') (A") (A') (A") (A') (A') (A") (A")
                 (A") (A') (A') (A") (A') (A") (A') (A") (A') (A")
                 (A") (A') (A') (A") (A') (A") (A") (A") (A') (A')
                 (A") (A') (A') (A') (A") (A') (A") (A') (A") (A")
                 (A') (A") (A') (A') (A') (A") (A') (A") (A') (A')
                 (A") (A') (A") (A') (A') (A")
 The electronic state of the initial guess is 1-A'.
 Requested convergence on RMS density matrix=1.00D-08 within 128 cycles.
 Requested convergence on MAX density matrix=1.00D-06.
 Requested convergence on             energy=1.00D-06.
 No special actions if energy rises.
 Integral accuracy reduced to 1.0D-05 until final iterations.
 Initial convergence to 1.0D-05 achieved.  Increase integral accuracy.
 SCF Done:  E(RB3LYP) =  -271.881155326     A.U. after   12 cycles
            NFock= 12  Conv=0.26D-08     -V/T= 2.0041

 **********************************************************************

            Population analysis using the SCF Density.

 **********************************************************************

 Orbital symmetries:
       Occupied  (A') (A") (A') (A') (A") (A') (A') (A') (A") (A')
                 (A") (A') (A') (A") (A') (A') (A") (A") (A') (A")
                 (A') (A") (A') (A')
       Virtual   (A') (A') (A") (A') (A') (A") (A') (A") (A') (A')
                 (A") (A') (A") (A") (A") (A') (A') (A') (A") (A")
                 (A') (A') (A") (A') (A') (A") (A") (A') (A") (A')
                 (A') (A') (A") (A') (A") (A') (A") (A') (A") (A')
                 (A') (A') (A") (A') (A") (A') (A') (A") (A") (A")
                 (A') (A') (A') (A") (A") (A') (A") (A') (A") (A')
                 (A') (A") (A') (A") (A') (A") (A') (A') (A") (A')
                 (A') (A") (A") (A') (A") (A') (A") (A') (A') (A")
                 (A') (A') (A") (A') (A") (A') (A') (A") (A') (A")
                 (A') (A") (A') (A") (A") (A') (A") (A') (A") (A')
                 (A') (A") (A') (A') (A") (A") (A') (A") (A') (A')
                 (A') (A") (A') (A") (A") (A") (A') (A') (A') (A")
                 (A') (A") (A') (A") (A') (A") (A") (A') (A') (A")
                 (A') (A') (A') (A") (A') (A") (A') (A") (A') (A")
                 (A') (A") (A") (A') (A') (A") (A') (A") (A') (A")
                 (A') (A") (A') (A') (A") (A") (A') (A") (A') (A")
                 (A') (A') (A') (A") (A') (A") (A') (A") (A") (A')
                 (A") (A') (A") (A') (A") (A') (A') (A") (A') (A')
                 (A") (A") (A') (A') (A") (A') (A") (A") (A') (A")
                 (A') (A") (A') (A") (A') (A') (A") (A') (A") (A')
                 (A") (A') (A") (A') (A') (A') (A") (A') (A") (A')
                 (A") (A') (A") (A') (A") (A") (A') (A") (A') (A")
                 (A') (A") (A') (A') (A") (A') (A") (A") (A') (A')
                 (A') (A") (A') (A') (A") (A") (A") (A') (A") (A')
                 (A') (A') (A") (A') (A") (A") (A') (A') (A") (A")
                 (A") (A') (A') (A") (A') (A") (A') (A") (A') (A")
                 (A") (A') (A') (A") (A') (A") (A") (A") (A') (A')
                 (A") (A') (A') (A") (A') (A') (A") (A') (A") (A")
                 (A') (A') (A") (A') (A') (A") (A') (A") (A') (A')
                 (A") (A') (A") (A') (A') (A")
 The electronic state is 1-A'.
 Alpha  occ. eigenvalues --  -19.11917 -10.21310 -10.21310 -10.17030 -10.16747
 Alpha  occ. eigenvalues --  -10.16746  -1.03123  -0.80056  -0.76339  -0.64489
 Alpha  occ. eigenvalues --   -0.63687  -0.56408  -0.49794  -0.47429  -0.45519
 Alpha  occ. eigenvalues --   -0.44401  -0.42249  -0.39081  -0.38216  -0.35676
 Alpha  occ. eigenvalues --   -0.33966  -0.32760  -0.30257  -0.25509
 Alpha virt. eigenvalues --    0.01486   0.03200   0.03577   0.04626   0.06907
 Alpha virt. eigenvalues --    0.07178   0.07781   0.08035   0.09594   0.10305
 Alpha virt. eigenvalues --    0.11202   0.13092   0.16136   0.17780   0.18228
 Alpha virt. eigenvalues --    0.18247   0.19145   0.20845   0.21422   0.22999
 Alpha virt. eigenvalues --    0.25860   0.27316   0.28563   0.30170   0.31796
 Alpha virt. eigenvalues --    0.31943   0.32310   0.32667   0.33537   0.33707
 Alpha virt. eigenvalues --    0.35015   0.35813   0.35875   0.36259   0.36783
 Alpha virt. eigenvalues --    0.37522   0.38566   0.39582   0.41539   0.42833
 Alpha virt. eigenvalues --    0.46435   0.49940   0.50266   0.55690   0.58466
 Alpha virt. eigenvalues --    0.59650   0.60920   0.61789   0.62655   0.70952
 Alpha virt. eigenvalues --    0.72678   0.75583   0.81334   0.81589   0.82285
 Alpha virt. eigenvalues --    0.83196   0.88816   0.89249   0.91561   0.91563
 Alpha virt. eigenvalues --    0.93969   0.97172   0.98347   1.00919   1.02005
 Alpha virt. eigenvalues --    1.02521   1.04606   1.05242   1.06429   1.07054
 Alpha virt. eigenvalues --    1.07423   1.07905   1.09507   1.12489   1.16461
 Alpha virt. eigenvalues --    1.16496   1.21006   1.22080   1.23283   1.23290
 Alpha virt. eigenvalues --    1.24047   1.26053   1.28826   1.29919   1.32229
 Alpha virt. eigenvalues --    1.33948   1.36557   1.37816   1.39132   1.39242
 Alpha virt. eigenvalues --    1.43790   1.45764   1.49417   1.51159   1.52054
 Alpha virt. eigenvalues --    1.55728   1.57200   1.61509   1.67177   1.67313
 Alpha virt. eigenvalues --    1.70405   1.72631   1.75583   1.79465   1.79712
 Alpha virt. eigenvalues --    1.83524   1.85582   1.88130   1.88263   1.92052
 Alpha virt. eigenvalues --    1.92659   1.94030   1.96195   1.99424   2.01172
 Alpha virt. eigenvalues --    2.02903   2.03151   2.05551   2.07368   2.08579
 Alpha virt. eigenvalues --    2.13099   2.18125   2.24269   2.25626   2.32217
 Alpha virt. eigenvalues --    2.33102   2.36238   2.38016   2.40565   2.41914
 Alpha virt. eigenvalues --    2.43714   2.60174   2.64635   2.65523   2.66486
 Alpha virt. eigenvalues --    2.69968   2.70645   2.86130   2.89562   2.99666
 Alpha virt. eigenvalues --    3.04009   3.08612   3.11345   3.14335   3.16399
 Alpha virt. eigenvalues --    3.19352   3.20983   3.23585   3.24334   3.30547
 Alpha virt. eigenvalues --    3.30577   3.35281   3.36684   3.40044   3.42949
 Alpha virt. eigenvalues --    3.45637   3.45895   3.50574   3.50651   3.52930
 Alpha virt. eigenvalues --    3.54567   3.58886   3.61148   3.63151   3.69052
 Alpha virt. eigenvalues --    3.70351   3.71715   3.74634   3.77708   3.77860
 Alpha virt. eigenvalues --    3.81891   3.82743   3.83527   3.84810   3.87224
 Alpha virt. eigenvalues --    3.88876   3.92012   3.94363   3.94866   3.95893
 Alpha virt. eigenvalues --    4.00229   4.00838   4.00874   4.04466   4.05430
 Alpha virt. eigenvalues --    4.10873   4.14798   4.15779   4.15902   4.21053
 Alpha virt. eigenvalues --    4.21539   4.25993   4.26736   4.32139   4.32585
 Alpha virt. eigenvalues --    4.34142   4.34144   4.35450   4.38334   4.39313
 Alpha virt. eigenvalues --    4.41630   4.43280   4.46518   4.47391   4.50911
 Alpha virt. eigenvalues --    4.51476   4.54028   4.56541   4.58807   4.60905
 Alpha virt. eigenvalues --    4.60937   4.63002   4.63394   4.65133   4.65608
 Alpha virt. eigenvalues --    4.67471   4.67975   4.70362   4.71946   4.72234
 Alpha virt. eigenvalues --    4.74851   4.74984   4.77266   4.79163   4.82267
 Alpha virt. eigenvalues --    4.83245   4.85538   4.88498   4.88653   4.88901
 Alpha virt. eigenvalues --    4.92193   4.93357   4.99072   5.02219   5.02351
 Alpha virt. eigenvalues --    5.05193   5.10689   5.13014   5.14426   5.15628
 Alpha virt. eigenvalues --    5.19066   5.25362   5.27018   5.27696   5.27894
 Alpha virt. eigenvalues --    5.29010   5.30075   5.36932   5.37589   5.39375
 Alpha virt. eigenvalues --    5.41635   5.42217   5.45753   5.48694   5.51972
 Alpha virt. eigenvalues --    5.52008   5.55184   5.57662   5.59170   5.62124
 Alpha virt. eigenvalues --    5.64860   5.65000   5.67232   5.70365   5.71252
 Alpha virt. eigenvalues --    5.72294   5.77919   5.82360   5.84145   5.84750
 Alpha virt. eigenvalues --    5.85152   5.90671   5.94025   5.95656   5.96609
 Alpha virt. eigenvalues --    5.98206   5.99482   6.00887   6.02280   6.04997
 Alpha virt. eigenvalues --    6.08033   6.10520   6.11474   6.13339   6.17020
 Alpha virt. eigenvalues --    6.17568   6.28938   6.32043   6.51964   6.59834
 Alpha virt. eigenvalues --    6.80772   6.88529   7.05103   7.24668   7.41396
 Alpha virt. eigenvalues --    8.29992
          Condensed to atoms (all electrons):
               1          2          3          4          5          6
     1  O    8.229776  -0.011193  -0.001543  -0.001189  -0.033901  -0.033901
     2  C   -0.011193   4.882570   0.449329   0.439029   0.293832   0.293832
     3  H   -0.001543   0.449329   0.644161  -0.018022  -0.053304  -0.053304
     4  H   -0.001189   0.439029  -0.018022   0.621030  -0.034659  -0.034659
     5  C   -0.033901   0.293832  -0.053304  -0.034659   4.826449  -0.016503
     6  C   -0.033901   0.293832  -0.053304  -0.034659  -0.016503   4.826449
     7  C    0.242024  -0.036778  -0.004560   0.008599  -0.019418   0.323492
     8  C    0.242024  -0.036778  -0.004560   0.008599   0.323492  -0.019418
     9  H    0.007372  -0.043882  -0.008303  -0.006743   0.417115   0.012529
    10  H    0.007372  -0.043882  -0.008303  -0.006743   0.012529   0.417115
    11  H    0.001005  -0.040997   0.009854  -0.005493   0.425493  -0.007605
    12  H    0.001005  -0.040997   0.009854  -0.005493  -0.007605   0.425493
    13  H   -0.058032  -0.014382   0.004600  -0.000774  -0.003548  -0.078696
    14  H   -0.058032  -0.014382   0.004600  -0.000774  -0.078696  -0.003548
    15  H   -0.037171   0.013857  -0.000606  -0.000431  -0.003909  -0.034338
    16  H   -0.037171   0.013857  -0.000606  -0.000431  -0.034338  -0.003909
               7          8          9         10         11         12
     1  O    0.242024   0.242024   0.007372   0.007372   0.001005   0.001005
     2  C   -0.036778  -0.036778  -0.043882  -0.043882  -0.040997  -0.040997
     3  H   -0.004560  -0.004560  -0.008303  -0.008303   0.009854   0.009854
     4  H    0.008599   0.008599  -0.006743  -0.006743  -0.005493  -0.005493
     5  C   -0.019418   0.323492   0.417115   0.012529   0.425493  -0.007605
     6  C    0.323492  -0.019418   0.012529   0.417115  -0.007605   0.425493
     7  C    4.562582  -0.054208  -0.000890  -0.026963  -0.001474  -0.037814
     8  C   -0.054208   4.562582  -0.026963  -0.000890  -0.037814  -0.001474
     9  H   -0.000890  -0.026963   0.648830   0.000086  -0.024506  -0.000381
    10  H   -0.026963  -0.000890   0.000086   0.648830  -0.000381  -0.024506
    11  H   -0.001474  -0.037814  -0.024506  -0.000381   0.650090   0.006131
    12  H   -0.037814  -0.001474  -0.000381  -0.024506   0.006131   0.650090
    13  H    0.445130  -0.010207   0.000554   0.001443   0.000972   0.012530
    14  H   -0.010207   0.445130   0.001443   0.000554   0.012530   0.000972
    15  H    0.429821   0.008732   0.000242  -0.000990  -0.000240  -0.010873
    16  H    0.008732   0.429821  -0.000990   0.000242  -0.010873  -0.000240
              13         14         15         16
     1  O   -0.058032  -0.058032  -0.037171  -0.037171
     2  C   -0.014382  -0.014382   0.013857   0.013857
     3  H    0.004600   0.004600  -0.000606  -0.000606
     4  H   -0.000774  -0.000774  -0.000431  -0.000431
     5  C   -0.003548  -0.078696  -0.003909  -0.034338
     6  C   -0.078696  -0.003548  -0.034338  -0.003909
     7  C    0.445130  -0.010207   0.429821   0.008732
     8  C   -0.010207   0.445130   0.008732   0.429821
     9  H    0.000554   0.001443   0.000242  -0.000990
    10  H    0.001443   0.000554  -0.000990   0.000242
    11  H    0.000972   0.012530  -0.000240  -0.010873
    12  H    0.012530   0.000972  -0.010873  -0.000240
    13  H    0.710325   0.017355  -0.034384  -0.000176
    14  H    0.017355   0.710325  -0.000176  -0.034384
    15  H   -0.034384  -0.000176   0.638580  -0.000424
    16  H   -0.000176  -0.034384  -0.000424   0.638580
 Mulliken charges:
               1
     1  O   -0.458444
     2  C   -0.103035
     3  H    0.030714
     4  H    0.038154
     5  C   -0.013027
     6  C   -0.013027
     7  C    0.171934
     8  C    0.171934
     9  H    0.024488
    10  H    0.024488
    11  H    0.023308
    12  H    0.023308
    13  H    0.007292
    14  H    0.007292
    15  H    0.032311
    16  H    0.032311
 Sum of Mulliken charges =  -0.00000
 Mulliken charges with hydrogens summed into heavy atoms:
               1
     1  O   -0.458444
     2  C   -0.034167
     5  C    0.034769
     6  C    0.034769
     7  C    0.211537
     8  C    0.211537
 Electronic spatial extent (au):  <R**2>=            546.4188
 Charge=             -0.0000 electrons
 Dipole moment (field-independent basis, Debye):
    X=              1.0065    Y=              1.1357    Z=             -0.0000  Tot=              1.5175
 Quadrupole moment (field-independent basis, Debye-Ang):
   XX=            -39.6300   YY=            -40.9139   ZZ=            -35.9772
   XY=             -1.7279   XZ=              0.0000   YZ=              0.0000
 Traceless Quadrupole moment (field-independent basis, Debye-Ang):
   XX=             -0.7896   YY=             -2.0736   ZZ=              2.8632
   XY=             -1.7279   XZ=              0.0000   YZ=              0.0000
 Octapole moment (field-independent basis, Debye-Ang**2):
  XXX=             -1.7294  YYY=              0.1585  ZZZ=              0.0000  XYY=              1.0827
  XXY=             -0.2142  XXZ=             -0.0000  XZZ=             -2.1810  YZZ=             -4.6972
  YYZ=             -0.0000  XYZ=             -0.0000
 Hexadecapole moment (field-independent basis, Debye-Ang**3):
 XXXX=           -110.2528 YYYY=           -310.0779 ZZZZ=           -328.6964 XXXY=            -31.6622
 XXXZ=             -0.0000 YYYX=            -32.5619 YYYZ=             -0.0000 ZZZX=              0.0000
 ZZZY=             -0.0000 XXYY=            -70.9901 XXZZ=            -72.1244 YYZZ=           -103.4523
 XXYZ=             -0.0000 YYXZ=             -0.0000 ZZXY=             -4.8952
 N-N= 2.599487393398D+02 E-N=-1.153143338362D+03  KE= 2.707779414819D+02
 Symmetry A'   KE= 1.877787543239D+02
 Symmetry A"   KE= 8.299918715796D+01
 Calling FoFJK, ICntrl=      2127 FMM=F ISym2X=1 I1Cent= 0 IOpClX= 0 NMat=1 NMatS=1 NMatT=0.
 ***** Axes restored to original set *****
 -------------------------------------------------------------------
 Center     Atomic                   Forces (Hartrees/Bohr)
 Number     Number              X              Y              Z
 -------------------------------------------------------------------
      1        8          -0.000072442   -0.000056558   -0.000000000
      2        6           0.000017096   -0.000007096    0.000000000
      3        1           0.000008710    0.000000090   -0.000000000
      4        1          -0.000002522    0.000015880   -0.000000000
      5        6          -0.000011685   -0.000026776   -0.000014641
      6        6          -0.000011685   -0.000026776    0.000014641
      7        6           0.000057563    0.000068370   -0.000057430
      8        6           0.000057563    0.000068370    0.000057430
      9        1           0.000007205    0.000005107    0.000020975
     10        1           0.000007205    0.000005107   -0.000020975
     11        1          -0.000011549    0.000002561    0.000005247
     12        1          -0.000011549    0.000002561   -0.000005247
     13        1           0.000001121   -0.000012959    0.000011383
     14        1           0.000001121   -0.000012959   -0.000011383
     15        1          -0.000018077   -0.000012461   -0.000005069
     16        1          -0.000018077   -0.000012461    0.000005069
 -------------------------------------------------------------------
 Cartesian Forces:  Max     0.000072442 RMS     0.000027695

 GradGradGradGradGradGradGradGradGradGradGradGradGradGradGradGradGradGrad
 Berny optimization.
 FormGI is forming the generalized inverse of G from B-inverse, IUseBI=4.
 Internal  Forces:  Max     0.000062070 RMS     0.000012244
 Search for a local minimum.
 Step number   1 out of a maximum of   99
 All quantities printed in internal units (Hartrees-Bohrs-Radians)
 Mixed Optimization -- En-DIIS/RFO-DIIS
 Second derivative matrix not updated -- first step.
 ITU=  0
     Eigenvalues ---    0.00574   0.00669   0.01346   0.02593   0.03043
     Eigenvalues ---    0.04061   0.04641   0.04748   0.05022   0.05130
     Eigenvalues ---    0.05664   0.06109   0.06307   0.07473   0.07939
     Eigenvalues ---    0.07965   0.07975   0.08623   0.10796   0.11735
     Eigenvalues ---    0.11741   0.12100   0.13147   0.16323   0.16869
     Eigenvalues ---    0.22236   0.28422   0.28521   0.28671   0.29819
     Eigenvalues ---    0.33666   0.33666   0.34236   0.34445   0.34445
     Eigenvalues ---    0.34510   0.34510   0.34645   0.34894   0.34894
     Eigenvalues ---    0.40750   0.40864
 RFO step:  Lambda=-5.03995989D-08 EMin= 5.74221297D-03
 Linear search not attempted -- first point.
 Iteration  1 RMS(Cart)=  0.00006550 RMS(Int)=  0.00000001
 Iteration  2 RMS(Cart)=  0.00000001 RMS(Int)=  0.00000000
 ClnCor:  largest displacement from symmetrization is 1.13D-12 for atom    14.
 Variable       Old X    -DE/DX   Delta X   Delta X   Delta X     New X
                                 (Linear)    (Quad)   (Total)
    R1        2.68661   0.00006   0.00000   0.00015   0.00015   2.68676
    R2        2.68661   0.00006   0.00000   0.00015   0.00015   2.68676
    R3        2.06933   0.00001   0.00000   0.00002   0.00002   2.06936
    R4        2.06255   0.00002   0.00000   0.00005   0.00005   2.06259
    R5        2.89525   0.00002   0.00000   0.00007   0.00007   2.89532
    R6        2.89525   0.00002   0.00000   0.00007   0.00007   2.89532
    R7        2.88323  -0.00001   0.00000  -0.00005  -0.00005   2.88318
    R8        2.06478   0.00002   0.00000   0.00006   0.00006   2.06485
    R9        2.06585   0.00001   0.00000   0.00004   0.00004   2.06588
   R10        2.88323  -0.00001   0.00000  -0.00005  -0.00005   2.88318
   R11        2.06478   0.00002   0.00000   0.00006   0.00006   2.06485
   R12        2.06585   0.00001   0.00000   0.00004   0.00004   2.06588
   R13        2.07898   0.00001   0.00000   0.00002   0.00002   2.07900
   R14        2.05848   0.00002   0.00000   0.00005   0.00005   2.05853
   R15        2.07898   0.00001   0.00000   0.00002   0.00002   2.07900
   R16        2.05848   0.00002   0.00000   0.00005   0.00005   2.05853
    A1        1.96169  -0.00002   0.00000  -0.00010  -0.00010   1.96159
    A2        1.86114   0.00000   0.00000  -0.00000  -0.00000   1.86114
    A3        1.90681  -0.00000   0.00000   0.00003   0.00003   1.90683
    A4        1.90681  -0.00000   0.00000   0.00003   0.00003   1.90683
    A5        1.93232  -0.00000   0.00000  -0.00002  -0.00002   1.93230
    A6        1.93232  -0.00000   0.00000  -0.00002  -0.00002   1.93230
    A7        1.92318   0.00001   0.00000  -0.00000  -0.00000   1.92318
    A8        1.92691   0.00000   0.00000   0.00000   0.00000   1.92691
    A9        1.93662   0.00000   0.00000   0.00003   0.00003   1.93666
   A10        1.91664   0.00000   0.00000   0.00003   0.00003   1.91667
   A11        1.91178  -0.00000   0.00000  -0.00001  -0.00001   1.91177
   A12        1.89889  -0.00000   0.00000  -0.00003  -0.00003   1.89886
   A13        1.87184  -0.00000   0.00000  -0.00003  -0.00003   1.87181
   A14        1.92691   0.00000   0.00000   0.00000   0.00000   1.92691
   A15        1.93662   0.00000   0.00000   0.00003   0.00003   1.93666
   A16        1.91664   0.00000   0.00000   0.00003   0.00003   1.91667
   A17        1.91178  -0.00000   0.00000  -0.00001  -0.00001   1.91177
   A18        1.89889  -0.00000   0.00000  -0.00003  -0.00003   1.89886
   A19        1.87184  -0.00000   0.00000  -0.00003  -0.00003   1.87181
   A20        1.95299  -0.00000   0.00000  -0.00002  -0.00002   1.95297
   A21        1.91021  -0.00001   0.00000  -0.00010  -0.00010   1.91011
   A22        1.85123  -0.00001   0.00000  -0.00012  -0.00012   1.85111
   A23        1.91814   0.00001   0.00000   0.00013   0.00013   1.91828
   A24        1.94543   0.00001   0.00000   0.00004   0.00004   1.94547
   A25        1.88347  -0.00000   0.00000   0.00006   0.00006   1.88353
   A26        1.95299  -0.00000   0.00000  -0.00002  -0.00002   1.95297
   A27        1.91021  -0.00001   0.00000  -0.00010  -0.00010   1.91011
   A28        1.85123  -0.00001   0.00000  -0.00012  -0.00012   1.85111
   A29        1.91814   0.00001   0.00000   0.00013   0.00013   1.91828
   A30        1.94543   0.00001   0.00000   0.00004   0.00004   1.94547
   A31        1.88347  -0.00000   0.00000   0.00006   0.00006   1.88353
    D1       -1.04136  -0.00000   0.00000  -0.00012  -0.00012  -1.04148
    D2        1.08921   0.00001   0.00000  -0.00003  -0.00003   1.08918
    D3        3.11691  -0.00000   0.00000  -0.00008  -0.00008   3.11683
    D4        1.04136   0.00000   0.00000   0.00012   0.00012   1.04148
    D5       -1.08921  -0.00001   0.00000   0.00003   0.00003  -1.08918
    D6       -3.11691   0.00000   0.00000   0.00008   0.00008  -3.11683
    D7       -1.19921  -0.00000   0.00000  -0.00006  -0.00006  -1.19927
    D8        0.92380  -0.00000   0.00000  -0.00005  -0.00005   0.92375
    D9        2.99018  -0.00000   0.00000  -0.00005  -0.00005   2.99013
   D10        3.03938  -0.00000   0.00000  -0.00006  -0.00006   3.03932
   D11       -1.12079  -0.00000   0.00000  -0.00005  -0.00005  -1.12084
   D12        0.94559   0.00000   0.00000  -0.00005  -0.00005   0.94554
   D13        0.89582   0.00000   0.00000  -0.00001  -0.00001   0.89580
   D14        3.01883  -0.00000   0.00000  -0.00000  -0.00000   3.01883
   D15       -1.19797   0.00000   0.00000  -0.00000  -0.00000  -1.19798
   D16        1.19921   0.00000   0.00000   0.00006   0.00006   1.19927
   D17       -0.92380   0.00000   0.00000   0.00005   0.00005  -0.92375
   D18       -2.99018   0.00000   0.00000   0.00005   0.00005  -2.99013
   D19       -3.03938   0.00000   0.00000   0.00006   0.00006  -3.03932
   D20        1.12079   0.00000   0.00000   0.00005   0.00005   1.12084
   D21       -0.94559  -0.00000   0.00000   0.00005   0.00005  -0.94554
   D22       -0.89582  -0.00000   0.00000   0.00001   0.00001  -0.89580
   D23       -3.01883   0.00000   0.00000   0.00000   0.00000  -3.01883
   D24        1.19797  -0.00000   0.00000   0.00000   0.00000   1.19798
   D25       -0.96522  -0.00000   0.00000  -0.00007  -0.00007  -0.96530
   D26        1.16080  -0.00001   0.00000  -0.00012  -0.00012   1.16068
   D27       -3.03505   0.00000   0.00000   0.00006   0.00006  -3.03499
   D28       -3.10287  -0.00001   0.00000  -0.00011  -0.00011  -3.10298
   D29       -0.97685  -0.00001   0.00000  -0.00016  -0.00016  -0.97700
   D30        1.11049   0.00000   0.00000   0.00003   0.00003   1.11052
   D31        1.13922  -0.00000   0.00000  -0.00005  -0.00005   1.13918
   D32       -3.01794  -0.00000   0.00000  -0.00010  -0.00010  -3.01804
   D33       -0.93060   0.00001   0.00000   0.00009   0.00009  -0.93051
   D34        0.96522   0.00000   0.00000   0.00007   0.00007   0.96530
   D35       -1.16080   0.00001   0.00000   0.00012   0.00012  -1.16068
   D36        3.03505  -0.00000   0.00000  -0.00006  -0.00006   3.03499
   D37        3.10287   0.00001   0.00000   0.00011   0.00011   3.10298
   D38        0.97685   0.00001   0.00000   0.00016   0.00016   0.97700
   D39       -1.11049  -0.00000   0.00000  -0.00003  -0.00003  -1.11052
   D40       -1.13922   0.00000   0.00000   0.00005   0.00005  -1.13918
   D41        3.01794   0.00000   0.00000   0.00010   0.00010   3.01804
   D42        0.93060  -0.00001   0.00000  -0.00009  -0.00009   0.93051
         Item               Value     Threshold  Converged?
 Maximum Force            0.000062     0.000450     YES
 RMS     Force            0.000012     0.000300     YES
 Maximum Displacement     0.000211     0.001800     YES
 RMS     Displacement     0.000066     0.001200     YES
 Predicted change in Energy=-2.520030D-08
 Optimization completed.
    -- Stationary point found.
                           ----------------------------
                           !   Optimized Parameters   !
                           ! (Angstroms and Degrees)  !
 --------------------------                            --------------------------
 ! Name  Definition              Value          Derivative Info.                !
 --------------------------------------------------------------------------------
 ! R1    R(1,7)                  1.4217         -DE/DX =    0.0001              !
 ! R2    R(1,8)                  1.4217         -DE/DX =    0.0001              !
 ! R3    R(2,3)                  1.095          -DE/DX =    0.0                 !
 ! R4    R(2,4)                  1.0915         -DE/DX =    0.0                 !
 ! R5    R(2,5)                  1.5321         -DE/DX =    0.0                 !
 ! R6    R(2,6)                  1.5321         -DE/DX =    0.0                 !
 ! R7    R(5,8)                  1.5257         -DE/DX =    0.0                 !
 ! R8    R(5,9)                  1.0926         -DE/DX =    0.0                 !
 ! R9    R(5,11)                 1.0932         -DE/DX =    0.0                 !
 ! R10   R(6,7)                  1.5257         -DE/DX =    0.0                 !
 ! R11   R(6,10)                 1.0926         -DE/DX =    0.0                 !
 ! R12   R(6,12)                 1.0932         -DE/DX =    0.0                 !
 ! R13   R(7,13)                 1.1001         -DE/DX =    0.0                 !
 ! R14   R(7,15)                 1.0893         -DE/DX =    0.0                 !
 ! R15   R(8,14)                 1.1001         -DE/DX =    0.0                 !
 ! R16   R(8,16)                 1.0893         -DE/DX =    0.0                 !
 ! A1    A(7,1,8)              112.3965         -DE/DX =    0.0                 !
 ! A2    A(3,2,4)              106.6354         -DE/DX =    0.0                 !
 ! A3    A(3,2,5)              109.2519         -DE/DX =    0.0                 !
 ! A4    A(3,2,6)              109.2519         -DE/DX =    0.0                 !
 ! A5    A(4,2,5)              110.714          -DE/DX =    0.0                 !
 ! A6    A(4,2,6)              110.714          -DE/DX =    0.0                 !
 ! A7    A(5,2,6)              110.1899         -DE/DX =    0.0                 !
 ! A8    A(2,5,8)              110.4037         -DE/DX =    0.0                 !
 ! A9    A(2,5,9)              110.9603         -DE/DX =    0.0                 !
 ! A10   A(2,5,11)             109.8155         -DE/DX =    0.0                 !
 ! A11   A(8,5,9)              109.5372         -DE/DX =    0.0                 !
 ! A12   A(8,5,11)             108.7981         -DE/DX =    0.0                 !
 ! A13   A(9,5,11)             107.2486         -DE/DX =    0.0                 !
 ! A14   A(2,6,7)              110.4037         -DE/DX =    0.0                 !
 ! A15   A(2,6,10)             110.9603         -DE/DX =    0.0                 !
 ! A16   A(2,6,12)             109.8155         -DE/DX =    0.0                 !
 ! A17   A(7,6,10)             109.5372         -DE/DX =    0.0                 !
 ! A18   A(7,6,12)             108.7981         -DE/DX =    0.0                 !
 ! A19   A(10,6,12)            107.2486         -DE/DX =    0.0                 !
 ! A20   A(1,7,6)              111.8982         -DE/DX =    0.0                 !
 ! A21   A(1,7,13)             109.447          -DE/DX =    0.0                 !
 ! A22   A(1,7,15)             106.0674         -DE/DX =    0.0                 !
 ! A23   A(6,7,13)             109.9015         -DE/DX =    0.0                 !
 ! A24   A(6,7,15)             111.465          -DE/DX =    0.0                 !
 ! A25   A(13,7,15)            107.9151         -DE/DX =    0.0                 !
 ! A26   A(1,8,5)              111.8982         -DE/DX =    0.0                 !
 ! A27   A(1,8,14)             109.447          -DE/DX =    0.0                 !
 ! A28   A(1,8,16)             106.0674         -DE/DX =    0.0                 !
 ! A29   A(5,8,14)             109.9015         -DE/DX =    0.0                 !
 ! A30   A(5,8,16)             111.465          -DE/DX =    0.0                 !
 ! A31   A(14,8,16)            107.9151         -DE/DX =    0.0                 !
 ! D1    D(8,1,7,6)            -59.6656         -DE/DX =    0.0                 !
 ! D2    D(8,1,7,13)            62.4071         -DE/DX =    0.0                 !
 ! D3    D(8,1,7,15)           178.5858         -DE/DX =    0.0                 !
 ! D4    D(7,1,8,5)             59.6656         -DE/DX =    0.0                 !
 ! D5    D(7,1,8,14)           -62.4071         -DE/DX =    0.0                 !
 ! D6    D(7,1,8,16)          -178.5858         -DE/DX =    0.0                 !
 ! D7    D(3,2,5,8)            -68.7099         -DE/DX =    0.0                 !
 ! D8    D(3,2,5,9)             52.9299         -DE/DX =    0.0                 !
 ! D9    D(3,2,5,11)           171.3248         -DE/DX =    0.0                 !
 ! D10   D(4,2,5,8)            174.1437         -DE/DX =    0.0                 !
 ! D11   D(4,2,5,9)            -64.2164         -DE/DX =    0.0                 !
 ! D12   D(4,2,5,11)            54.1785         -DE/DX =    0.0                 !
 ! D13   D(6,2,5,8)             51.3264         -DE/DX =    0.0                 !
 ! D14   D(6,2,5,9)            172.9663         -DE/DX =    0.0                 !
 ! D15   D(6,2,5,11)           -68.6388         -DE/DX =    0.0                 !
 ! D16   D(3,2,6,7)             68.7099         -DE/DX =    0.0                 !
 ! D17   D(3,2,6,10)           -52.9299         -DE/DX =    0.0                 !
 ! D18   D(3,2,6,12)          -171.3248         -DE/DX =    0.0                 !
 ! D19   D(4,2,6,7)           -174.1437         -DE/DX =    0.0                 !
 ! D20   D(4,2,6,10)            64.2164         -DE/DX =    0.0                 !
 ! D21   D(4,2,6,12)           -54.1785         -DE/DX =    0.0                 !
 ! D22   D(5,2,6,7)            -51.3264         -DE/DX =    0.0                 !
 ! D23   D(5,2,6,10)          -172.9663         -DE/DX =    0.0                 !
 ! D24   D(5,2,6,12)            68.6388         -DE/DX =    0.0                 !
 ! D25   D(2,5,8,1)            -55.3032         -DE/DX =    0.0                 !
 ! D26   D(2,5,8,14)            66.5088         -DE/DX =    0.0                 !
 ! D27   D(2,5,8,16)          -173.8955         -DE/DX =    0.0                 !
 ! D28   D(9,5,8,1)           -177.7814         -DE/DX =    0.0                 !
 ! D29   D(9,5,8,14)           -55.9693         -DE/DX =    0.0                 !
 ! D30   D(9,5,8,16)            63.6263         -DE/DX =    0.0                 !
 ! D31   D(11,5,8,1)            65.2727         -DE/DX =    0.0                 !
 ! D32   D(11,5,8,14)         -172.9152         -DE/DX =    0.0                 !
 ! D33   D(11,5,8,16)          -53.3196         -DE/DX =    0.0                 !
 ! D34   D(2,6,7,1)             55.3032         -DE/DX =    0.0                 !
 ! D35   D(2,6,7,13)           -66.5088         -DE/DX =    0.0                 !
 ! D36   D(2,6,7,15)           173.8955         -DE/DX =    0.0                 !
 ! D37   D(10,6,7,1)           177.7814         -DE/DX =    0.0                 !
 ! D38   D(10,6,7,13)           55.9693         -DE/DX =    0.0                 !
 ! D39   D(10,6,7,15)          -63.6263         -DE/DX =    0.0                 !
 ! D40   D(12,6,7,1)           -65.2727         -DE/DX =    0.0                 !
 ! D41   D(12,6,7,13)          172.9152         -DE/DX =    0.0                 !
 ! D42   D(12,6,7,15)           53.3196         -DE/DX =    0.0                 !
 --------------------------------------------------------------------------------
 GradGradGradGradGradGradGradGradGradGradGradGradGradGradGradGradGradGrad

                          Input orientation:                          
 ---------------------------------------------------------------------
 Center     Atomic      Atomic             Coordinates (Angstroms)
 Number     Number       Type             X           Y           Z
 ---------------------------------------------------------------------
      1          8           0       -0.655248   -1.267096    0.000000
      2          6           0        0.621190    1.326160   -0.000000
      3          1           0        1.692615    1.099949   -0.000000
      4          1           0        0.531500    2.413921   -0.000000
      5          6           0       -0.021098    0.729452    1.256478
      6          6           0       -0.021098    0.729452   -1.256478
      7          6           0       -0.021098   -0.794439   -1.181380
      8          6           0       -0.021098   -0.794439    1.181380
      9          1           0        0.508516    1.050940    2.156482
     10          1           0        0.508516    1.050940   -2.156482
     11          1           0       -1.053457    1.077733    1.346035
     12          1           0       -1.053457    1.077733   -1.346035
     13          1           0        1.011856   -1.171214   -1.218431
     14          1           0        1.011856   -1.171214    1.218431
     15          1           0       -0.568378   -1.234568   -2.014054
     16          1           0       -0.568378   -1.234568    2.014054
 ---------------------------------------------------------------------
                    Distance matrix (angstroms):
                    1          2          3          4          5
     1  O    0.000000
     2  C    2.890376   0.000000
     3  H    3.333971   1.095045   0.000000
     4  H    3.867591   1.091452   1.753485   0.000000
     5  C    2.442762   1.532100   2.157039   2.172910   0.000000
     6  C    2.442762   1.532100   2.157039   2.172910   2.512956
     7  C    1.421693   2.511002   2.814459   3.463322   2.874960
     8  C    1.421693   2.511002   2.814459   3.463322   1.525740
     9  H    3.373137   2.176891   2.460672   2.551208   1.092636
    10  H    3.373137   2.176891   2.460672   2.551208   3.468738
    11  H    2.732875   2.162861   3.058303   2.471699   1.093200
    12  H    2.732875   2.162861   3.058303   2.471699   2.821372
    13  H    2.067124   2.806077   2.665743   3.816872   3.287050
    14  H    2.067124   2.806077   2.665743   3.816872   2.163556
    15  H    2.016189   3.468258   3.823411   4.310176   3.853994
    16  H    2.016189   3.468258   3.823411   4.310176   2.175043
                    6          7          8          9         10
     6  C    0.000000
     7  C    1.525740   0.000000
     8  C    2.874960   2.362760   0.000000
     9  H    3.468738   3.850615   2.153309   0.000000
    10  H    1.092636   2.153309   3.850615   4.312964   0.000000
    11  H    2.821372   3.310381   2.144272   1.759915   3.835114
    12  H    1.093200   2.144272   3.310381   3.835114   1.759915
    13  H    2.163556   1.100148   2.639706   4.072021   2.463993
    14  H    3.287050   2.639706   1.100148   2.463993   4.072021
    15  H    2.175043   1.089300   3.271701   4.876127   2.530520
    16  H    3.853994   3.271701   1.089300   2.530520   4.876127
                   11         12         13         14         15
    11  H    0.000000
    12  H    2.692070   0.000000
    13  H    3.987451   3.056070   0.000000
    14  H    3.056070   3.987451   2.436862   0.000000
    15  H    4.107583   2.455257   1.770358   3.598626   0.000000
    16  H    2.455257   4.107583   3.598626   1.770358   4.028108
                   16
    16  H    0.000000
 Stoichiometry    C5H10O
 Framework group  CS[SG(CH2O),X(C4H8)]
 Deg. of freedom    23
 Full point group                 CS      NOp   2
 Largest Abelian subgroup         CS      NOp   2
 Largest concise Abelian subgroup CS      NOp   2
                         Standard orientation:                         
 ---------------------------------------------------------------------
 Center     Atomic      Atomic             Coordinates (Angstroms)
 Number     Number       Type             X           Y           Z
 ---------------------------------------------------------------------
      1          8           0       -0.655248   -1.267096   -0.000000
      2          6           0        0.621190    1.326160    0.000000
      3          1           0        1.692615    1.099949    0.000000
      4          1           0        0.531500    2.413921    0.000000
      5          6           0       -0.021098    0.729452    1.256478
      6          6           0       -0.021098    0.729452   -1.256478
      7          6           0       -0.021098   -0.794439   -1.181380
      8          6           0       -0.021098   -0.794439    1.181380
      9          1           0        0.508516    1.050940    2.156482
     10          1           0        0.508516    1.050940   -2.156482
     11          1           0       -1.053457    1.077733    1.346035
     12          1           0       -1.053457    1.077733   -1.346035
     13          1           0        1.011856   -1.171214   -1.218431
     14          1           0        1.011856   -1.171214    1.218431
     15          1           0       -0.568378   -1.234568   -2.014054
     16          1           0       -0.568378   -1.234568    2.014054
 ---------------------------------------------------------------------
 Rotational constants (GHZ):           4.6636296           4.5035882           2.5915479
 1\1\GINC-GAMBA\FOpt\RB3LYP\Gen\C5H10O1\IRIKURA\28-Sep-2023\0\\# b3lyp/
 gen opt freq CPHF(Grid=OneStep)\\tetrahydropyran, B3LYP/pcseg-2\\0,1\O
 ,-0.655248,-1.267096,0.\C,0.62119,1.32616,0.\H,1.692615,1.099949,0.\H,
 0.5315,2.413921,0.\C,-0.021098,0.729452,1.256478\C,-0.021098,0.729452,
 -1.256478\C,-0.021098,-0.794439,-1.18138\C,-0.021098,-0.794439,1.18138
 \H,0.508516,1.05094,2.156482\H,0.508516,1.05094,-2.156482\H,-1.053457,
 1.077733,1.346035\H,-1.053457,1.077733,-1.346035\H,1.011856,-1.171214,
 -1.218431\H,1.011856,-1.171214,1.218431\H,-0.568378,-1.234568,-2.01405
 4\H,-0.568378,-1.234568,2.014054\\Version=ES64L-G16RevB.01\State=1-A'\
 HF=-271.8811553\RMSD=2.636e-09\RMSF=2.769e-05\Dipole=0.3959952,0.44682
 09,0.\Quadrupole=-0.5870381,-1.5416439,2.128682,-1.2846694,0.,0.\PG=CS
  [SG(C1H2O1),X(C4H8)]\\@


 IF I HAVE SEEN FARTHER, IT IS BY STANDING ON THE
 SHOULDERS OF GIANTS. -- SIR ISAAC NEWTON
 Job cpu time:       0 days  0 hours  6 minutes  6.9 seconds.
 Elapsed time:       0 days  0 hours  1 minutes 31.8 seconds.
 File lengths (MBytes):  RWF=     62 Int=      0 D2E=      0 Chk=      8 Scr=      1
 Normal termination of Gaussian 16 at Thu Sep 28 17:58:01 2023.
 Link1:  Proceeding to internal job step number  2.
 ------------------------------------------------------------------
 #N Geom=AllCheck Guess=TCheck SCRF=Check GenChk RB3LYP/ChkBas Freq
 ------------------------------------------------------------------
 1/10=4,29=7,30=1,38=1,40=1/1,3;
 2/12=2,40=1/2;
 3/5=7,6=2,11=2,14=-4,25=1,30=1,67=1,70=2,71=2,74=-5,82=7,116=1,140=1/1,2,3;
 4/5=101/1;
 5/5=2,38=6,98=1/2;
 8/6=4,10=90,11=11/1;
 11/6=1,8=1,9=11,15=111,16=1/1,2,10;
 10/6=1,60=-420/2;
 6/7=2,8=2,9=2,10=2,28=1/1;
 7/8=1,10=1,25=1/1,2,3,16;
 1/10=4,30=1/3;
 99//99;
 Structure from the checkpoint file:  "THP.chk"
 ------------------------------
 tetrahydropyran, B3LYP/pcseg-2
 ------------------------------
 Charge =  0 Multiplicity = 1
 Redundant internal coordinates found in file.  (old form).
 O,0,-0.655248,-1.267096,0.
 C,0,0.62119,1.32616,0.
 H,0,1.692615,1.099949,0.
 H,0,0.5315,2.413921,0.
 C,0,-0.021098,0.729452,1.256478
 C,0,-0.021098,0.729452,-1.256478
 C,0,-0.021098,-0.794439,-1.18138
 C,0,-0.021098,-0.794439,1.18138
 H,0,0.508516,1.05094,2.156482
 H,0,0.508516,1.05094,-2.156482
 H,0,-1.053457,1.077733,1.346035
 H,0,-1.053457,1.077733,-1.346035
 H,0,1.011856,-1.171214,-1.218431
 H,0,1.011856,-1.171214,1.218431
 H,0,-0.568378,-1.234568,-2.014054
 H,0,-0.568378,-1.234568,2.014054
 Recover connectivity data from disk.

 GradGradGradGradGradGradGradGradGradGradGradGradGradGradGradGradGradGrad
 Berny optimization.
 Initialization pass.
                           ----------------------------
                           !    Initial Parameters    !
                           ! (Angstroms and Degrees)  !
 --------------------------                            --------------------------
 ! Name  Definition              Value          Derivative Info.                !
 --------------------------------------------------------------------------------
 ! R1    R(1,7)                  1.4217         calculate D2E/DX2 analytically  !
 ! R2    R(1,8)                  1.4217         calculate D2E/DX2 analytically  !
 ! R3    R(2,3)                  1.095          calculate D2E/DX2 analytically  !
 ! R4    R(2,4)                  1.0915         calculate D2E/DX2 analytically  !
 ! R5    R(2,5)                  1.5321         calculate D2E/DX2 analytically  !
 ! R6    R(2,6)                  1.5321         calculate D2E/DX2 analytically  !
[...]
 Alpha virt. eigenvalues --    8.90286   9.01152   9.06312   9.13767   9.25788
 Alpha virt. eigenvalues --    9.26924   9.29203   9.37984   9.46653   9.55304
 Alpha virt. eigenvalues --    9.64620   9.66842   9.72113   9.72248   9.77009
 Alpha virt. eigenvalues --    9.80364   9.82967   9.91629   9.94816   9.97095
 Alpha virt. eigenvalues --   10.00026  10.00248  10.44531  10.65094  11.04638
 Alpha virt. eigenvalues --   11.69898  11.73524  11.87582  12.27241  12.70739
 Alpha virt. eigenvalues --   21.39451  21.45903  21.52784  21.57508  21.58138
 Alpha virt. eigenvalues --   21.62854  21.65265  21.68002  21.68963  21.72602
 Alpha virt. eigenvalues --   21.87466  21.96510  22.02754  22.07130  22.21304
 Alpha virt. eigenvalues --   23.24280  23.28843  23.68381  23.98220  24.21051
 Alpha virt. eigenvalues --   37.93505  38.07239  38.53110  43.77359
          Condensed to atoms (all electrons):
               1          2          3          4          5          6
     1  O    8.610745  -0.032893   0.001505  -0.001108  -0.030147  -0.030147
     2  C   -0.032893   4.939828   0.468509   0.435687   0.255421   0.255421
     3  H    0.001505   0.468509   0.581781  -0.026682  -0.046889  -0.046889
     4  H   -0.001108   0.435687  -0.026682   0.584943  -0.022067  -0.022067
     5  C   -0.030147   0.255421  -0.046889  -0.022067   4.900908  -0.056785
     6  C   -0.030147   0.255421  -0.046889  -0.022067  -0.056785   4.900908
     7  C    0.106578  -0.021401  -0.006635   0.008449   0.010971   0.286974
     8  C    0.106578  -0.021401  -0.006635   0.008449   0.286974   0.010971
     9  H    0.009264  -0.031197  -0.007021  -0.004822   0.432454   0.015511
    10  H    0.009264  -0.031197  -0.007021  -0.004822   0.015511   0.432454
    11  H   -0.001954  -0.032955   0.007092  -0.007224   0.451871  -0.013180
    12  H   -0.001954  -0.032955   0.007092  -0.007224  -0.013180   0.451871
    13  H   -0.031868  -0.006882   0.002140   0.000239  -0.004141  -0.058117
    14  H   -0.031868  -0.006882   0.002140   0.000239  -0.058117  -0.004141
    15  H   -0.065291   0.010466  -0.000305  -0.000324  -0.005393  -0.021493
    16  H   -0.065291   0.010466  -0.000305  -0.000324  -0.021493  -0.005393
               7          8          9         10         11         12
     1  O    0.106578   0.106578   0.009264   0.009264  -0.001954  -0.001954
     2  C   -0.021401  -0.021401  -0.031197  -0.031197  -0.032955  -0.032955
     3  H   -0.006635  -0.006635  -0.007021  -0.007021   0.007092   0.007092
     4  H    0.008449   0.008449  -0.004822  -0.004822  -0.007224  -0.007224
     5  C    0.010971   0.286974   0.432454   0.015511   0.451871  -0.013180
     6  C    0.286974   0.010971   0.015511   0.432454  -0.013180   0.451871
     7  C    4.723163   0.000498  -0.006276  -0.011744   0.002702  -0.049902
     8  C    0.000498   4.723163  -0.011744  -0.006276  -0.049902   0.002702
     9  H   -0.006276  -0.011744   0.576212  -0.000360  -0.023342  -0.000361
    10  H   -0.011744  -0.006276  -0.000360   0.576212  -0.000361  -0.023342
    11  H    0.002702  -0.049902  -0.023342  -0.000361   0.584600   0.003762
    12  H   -0.049902   0.002702  -0.000361  -0.023342   0.003762   0.584600
    13  H    0.439106  -0.004344   0.000109  -0.005583   0.000459   0.009210
    14  H   -0.004344   0.439106  -0.005583   0.000109   0.009210   0.000459
    15  H    0.471513   0.009958   0.000190  -0.007614  -0.000053  -0.008267
    16  H    0.009958   0.471513  -0.007614   0.000190  -0.008267  -0.000053
              13         14         15         16
     1  O   -0.031868  -0.031868  -0.065291  -0.065291
     2  C   -0.006882  -0.006882   0.010466   0.010466
     3  H    0.002140   0.002140  -0.000305  -0.000305
     4  H    0.000239   0.000239  -0.000324  -0.000324
     5  C   -0.004141  -0.058117  -0.005393  -0.021493
     6  C   -0.058117  -0.004141  -0.021493  -0.005393
     7  C    0.439106  -0.004344   0.471513   0.009958
     8  C   -0.004344   0.439106   0.009958   0.471513
     9  H    0.000109  -0.005583   0.000190  -0.007614
    10  H   -0.005583   0.000109  -0.007614   0.000190
    11  H    0.000459   0.009210  -0.000053  -0.008267
    12  H    0.009210   0.000459  -0.008267  -0.000053
    13  H    0.596160   0.008073  -0.028585  -0.000153
    14  H    0.008073   0.596160  -0.000153  -0.028585
    15  H   -0.028585  -0.000153   0.530316  -0.000503
    16  H   -0.000153  -0.028585  -0.000503   0.530316
          Atomic-Atomic Spin Densities.
               1          2          3          4          5          6
     1  O    0.000000   0.000000   0.000000   0.000000   0.000000   0.000000
     2  C    0.000000   0.000000   0.000000   0.000000   0.000000   0.000000
     3  H    0.000000   0.000000   0.000000   0.000000   0.000000   0.000000
     4  H    0.000000   0.000000   0.000000   0.000000   0.000000   0.000000
     5  C    0.000000   0.000000   0.000000   0.000000   0.000000   0.000000
     6  C    0.000000   0.000000   0.000000   0.000000   0.000000   0.000000
     7  C    0.000000   0.000000   0.000000   0.000000   0.000000   0.000000
     8  C    0.000000   0.000000   0.000000   0.000000   0.000000   0.000000
     9  H    0.000000   0.000000   0.000000   0.000000   0.000000   0.000000
    10  H    0.000000   0.000000   0.000000   0.000000   0.000000   0.000000
    11  H    0.000000   0.000000   0.000000   0.000000   0.000000   0.000000
    12  H    0.000000   0.000000   0.000000   0.000000   0.000000   0.000000
    13  H    0.000000   0.000000   0.000000   0.000000   0.000000   0.000000
    14  H    0.000000   0.000000   0.000000   0.000000   0.000000   0.000000
    15  H    0.000000   0.000000   0.000000   0.000000   0.000000   0.000000
    16  H    0.000000   0.000000   0.000000   0.000000   0.000000   0.000000
               7          8          9         10         11         12
     1  O    0.000000   0.000000   0.000000   0.000000   0.000000   0.000000
     2  C    0.000000   0.000000   0.000000   0.000000   0.000000   0.000000
     3  H    0.000000   0.000000   0.000000   0.000000   0.000000   0.000000
     4  H    0.000000   0.000000   0.000000   0.000000   0.000000   0.000000
     5  C    0.000000   0.000000   0.000000   0.000000   0.000000   0.000000
     6  C    0.000000   0.000000   0.000000   0.000000   0.000000   0.000000
     7  C    0.000000   0.000000   0.000000   0.000000   0.000000   0.000000
     8  C    0.000000   0.000000   0.000000   0.000000   0.000000   0.000000
     9  H    0.000000   0.000000   0.000000   0.000000   0.000000   0.000000
    10  H    0.000000   0.000000   0.000000   0.000000   0.000000   0.000000
    11  H    0.000000   0.000000   0.000000   0.000000   0.000000   0.000000
    12  H    0.000000   0.000000   0.000000   0.000000   0.000000   0.000000
    13  H    0.000000   0.000000   0.000000   0.000000   0.000000   0.000000
    14  H    0.000000   0.000000   0.000000   0.000000   0.000000   0.000000
    15  H    0.000000   0.000000   0.000000   0.000000   0.000000   0.000000
    16  H    0.000000   0.000000   0.000000   0.000000   0.000000   0.000000
              13         14         15         16
     1  O    0.000000   0.000000   0.000000   0.000000
     2  C    0.000000   0.000000   0.000000   0.000000
     3  H    0.000000   0.000000   0.000000   0.000000
     4  H    0.000000   0.000000   0.000000   0.000000
     5  C    0.000000   0.000000   0.000000   0.000000
     6  C    0.000000   0.000000   0.000000   0.000000
     7  C    0.000000   0.000000   0.000000   0.000000
     8  C    0.000000   0.000000   0.000000   0.000000
     9  H    0.000000   0.000000   0.000000   0.000000
    10  H    0.000000   0.000000   0.000000   0.000000
    11  H    0.000000   0.000000   0.000000   0.000000
    12  H    0.000000   0.000000   0.000000   0.000000
    13  H    0.000000   0.000000   0.000000   0.000000
    14  H    0.000000   0.000000   0.000000   0.000000
    15  H    0.000000   0.000000   0.000000   0.000000
    16  H    0.000000   0.000000   0.000000   0.000000
 Mulliken charges and spin densities:
               1          2
     1  O   -0.551410   0.000000
     2  C   -0.158035   0.000000
     3  H    0.078122   0.000000
     4  H    0.058658   0.000000
     5  C   -0.095898   0.000000
     6  C   -0.095898   0.000000
     7  C    0.040390   0.000000
     8  C    0.040390   0.000000
     9  H    0.064581   0.000000
    10  H    0.064581   0.000000
    11  H    0.077544   0.000000
    12  H    0.077544   0.000000
    13  H    0.084177   0.000000
    14  H    0.084177   0.000000
    15  H    0.115539   0.000000
    16  H    0.115539   0.000000
 Sum of Mulliken charges =  -0.00000   0.00000
 Mulliken charges and spin densities with hydrogens summed into heavy atoms:
               1          2
     1  O   -0.551410   0.000000
     2  C   -0.021255   0.000000
     5  C    0.046226   0.000000
     6  C    0.046226   0.000000
     7  C    0.240106   0.000000
     8  C    0.240106   0.000000
 Electronic spatial extent (au):  <R**2>=            545.9578
 Charge=             -0.0000 electrons
 Dipole moment (field-independent basis, Debye):
    X=              1.1390    Y=              1.2058    Z=             -0.0000  Tot=              1.6587
 Quadrupole moment (field-independent basis, Debye-Ang):
   XX=            -39.3357   YY=            -40.8669   ZZ=            -35.6984
   XY=             -1.9710   XZ=              0.0000   YZ=              0.0000
 Traceless Quadrupole moment (field-independent basis, Debye-Ang):
   XX=             -0.7020   YY=             -2.2332   ZZ=              2.9352
   XY=             -1.9710   XZ=              0.0000   YZ=              0.0000
 Octapole moment (field-independent basis, Debye-Ang**2):
  XXX=             -1.3470  YYY=              0.1990  ZZZ=             -0.0000  XYY=              1.3503
  XXY=             -0.2763  XXZ=              0.0000  XZZ=             -2.0335  YZZ=             -4.7867
  YYZ=             -0.0000  XYZ=              0.0000
 Hexadecapole moment (field-independent basis, Debye-Ang**3):
 XXXX=           -105.8430 YYYY=           -305.1778 ZZZZ=           -323.7905 XXXY=            -32.3050
 XXXZ=             -0.0000 YYYX=            -33.1531 YYYZ=             -0.0000 ZZZX=              0.0000
 ZZZY=              0.0000 XXYY=            -69.5882 XXZZ=            -70.4499 YYZZ=           -101.7235
 XXYZ=              0.0000 YYXZ=              0.0000 ZZXY=             -4.8348
 N-N= 2.599487393398D+02 E-N=-1.151652175122D+03  KE= 2.698653332724D+02
 Symmetry A'   KE= 1.872956103384D+02
 Symmetry A"   KE= 8.256972293400D+01
 Symmetry A'   SP= 0.000000000000D+00
 Symmetry A"   SP= 0.000000000000D+00
                          Isotropic Fermi Contact Couplings
        Atom                 a.u.       MegaHertz       Gauss      10(-4) cm-1
     1  O(17)              0.00000      -0.00000      -0.00000      -0.00000
     2  C(13)              0.00000       0.00000       0.00000       0.00000
     3  H(1)               0.00000       0.00000       0.00000       0.00000
     4  H(1)               0.00000       0.00000       0.00000       0.00000
     5  C(13)              0.00000       0.00000       0.00000       0.00000
     6  C(13)              0.00000       0.00000       0.00000       0.00000
     7  C(13)              0.00000       0.00000       0.00000       0.00000
     8  C(13)              0.00000       0.00000       0.00000       0.00000
     9  H(1)               0.00000       0.00000       0.00000       0.00000
    10  H(1)               0.00000       0.00000       0.00000       0.00000
    11  H(1)               0.00000       0.00000       0.00000       0.00000
    12  H(1)               0.00000       0.00000       0.00000       0.00000
    13  H(1)               0.00000       0.00000       0.00000       0.00000
    14  H(1)               0.00000       0.00000       0.00000       0.00000
    15  H(1)               0.00000       0.00000       0.00000       0.00000
    16  H(1)               0.00000       0.00000       0.00000       0.00000
 --------------------------------------------------------
       Center         ----  Spin Dipole Couplings  ----
                      3XX-RR        3YY-RR        3ZZ-RR
 --------------------------------------------------------
     1   Atom        0.000000      0.000000      0.000000
     2   Atom        0.000000      0.000000      0.000000
     3   Atom        0.000000      0.000000      0.000000
     4   Atom        0.000000      0.000000      0.000000
     5   Atom        0.000000      0.000000      0.000000
     6   Atom        0.000000      0.000000      0.000000
     7   Atom        0.000000      0.000000      0.000000
     8   Atom        0.000000      0.000000      0.000000
     9   Atom        0.000000      0.000000      0.000000
    10   Atom        0.000000      0.000000      0.000000
    11   Atom        0.000000      0.000000      0.000000
    12   Atom        0.000000      0.000000      0.000000
    13   Atom        0.000000      0.000000      0.000000
    14   Atom        0.000000      0.000000      0.000000
    15   Atom        0.000000      0.000000      0.000000
    16   Atom        0.000000      0.000000      0.000000
 --------------------------------------------------------
                        XY            XZ            YZ
 --------------------------------------------------------
     1   Atom        0.000000      0.000000      0.000000
     2   Atom        0.000000      0.000000      0.000000
     3   Atom        0.000000      0.000000      0.000000
     4   Atom        0.000000      0.000000      0.000000
     5   Atom        0.000000      0.000000      0.000000
     6   Atom        0.000000      0.000000      0.000000
     7   Atom        0.000000      0.000000      0.000000
     8   Atom        0.000000      0.000000      0.000000
     9   Atom        0.000000      0.000000      0.000000
    10   Atom        0.000000      0.000000      0.000000
    11   Atom        0.000000      0.000000      0.000000
    12   Atom        0.000000      0.000000      0.000000
    13   Atom        0.000000      0.000000      0.000000
    14   Atom        0.000000      0.000000      0.000000
    15   Atom        0.000000      0.000000      0.000000
    16   Atom        0.000000      0.000000      0.000000
 --------------------------------------------------------


 ---------------------------------------------------------------------------------
              Anisotropic Spin Dipole Couplings in Principal Axis System
 ---------------------------------------------------------------------------------

       Atom             a.u.   MegaHertz   Gauss  10(-4) cm-1        Axes

              Baa     0.0000    -0.000    -0.000    -0.000  1.0000  0.0000  0.0000
     1 O(17)  Bbb     0.0000    -0.000    -0.000    -0.000 -0.0000  1.0000  0.0000
              Bcc     0.0000    -0.000    -0.000    -0.000  0.0000  0.0000  1.0000
 
              Baa     0.0000     0.000     0.000     0.000  1.0000  0.0000  0.0000
     2 C(13)  Bbb     0.0000     0.000     0.000     0.000 -0.0000  1.0000  0.0000
              Bcc     0.0000     0.000     0.000     0.000  0.0000  0.0000  1.0000
 
              Baa     0.0000     0.000     0.000     0.000  1.0000  0.0000  0.0000
     3 H(1)   Bbb     0.0000     0.000     0.000     0.000 -0.0000  1.0000  0.0000
              Bcc     0.0000     0.000     0.000     0.000  0.0000  0.0000  1.0000
 
              Baa     0.0000     0.000     0.000     0.000  1.0000  0.0000  0.0000
     4 H(1)   Bbb     0.0000     0.000     0.000     0.000 -0.0000  1.0000  0.0000
              Bcc     0.0000     0.000     0.000     0.000  0.0000  0.0000  1.0000
 
              Baa     0.0000     0.000     0.000     0.000  1.0000  0.0000  0.0000
     5 C(13)  Bbb     0.0000     0.000     0.000     0.000 -0.0000  1.0000  0.0000
              Bcc     0.0000     0.000     0.000     0.000  0.0000  0.0000  1.0000
 
              Baa     0.0000     0.000     0.000     0.000  1.0000  0.0000  0.0000
     6 C(13)  Bbb     0.0000     0.000     0.000     0.000 -0.0000  1.0000  0.0000
              Bcc     0.0000     0.000     0.000     0.000  0.0000  0.0000  1.0000
 
              Baa     0.0000     0.000     0.000     0.000  1.0000  0.0000  0.0000
     7 C(13)  Bbb     0.0000     0.000     0.000     0.000 -0.0000  1.0000  0.0000
              Bcc     0.0000     0.000     0.000     0.000  0.0000  0.0000  1.0000
 
              Baa     0.0000     0.000     0.000     0.000  1.0000  0.0000  0.0000
     8 C(13)  Bbb     0.0000     0.000     0.000     0.000 -0.0000  1.0000  0.0000
              Bcc     0.0000     0.000     0.000     0.000  0.0000  0.0000  1.0000
 
              Baa     0.0000     0.000     0.000     0.000  1.0000  0.0000  0.0000
     9 H(1)   Bbb     0.0000     0.000     0.000     0.000 -0.0000  1.0000  0.0000
              Bcc     0.0000     0.000     0.000     0.000  0.0000  0.0000  1.0000
 
              Baa     0.0000     0.000     0.000     0.000  1.0000  0.0000  0.0000
    10 H(1)   Bbb     0.0000     0.000     0.000     0.000 -0.0000  1.0000  0.0000
              Bcc     0.0000     0.000     0.000     0.000  0.0000  0.0000  1.0000
 
              Baa     0.0000     0.000     0.000     0.000  1.0000  0.0000  0.0000
    11 H(1)   Bbb     0.0000     0.000     0.000     0.000 -0.0000  1.0000  0.0000
              Bcc     0.0000     0.000     0.000     0.000  0.0000  0.0000  1.0000
 
              Baa     0.0000     0.000     0.000     0.000  1.0000  0.0000  0.0000
    12 H(1)   Bbb     0.0000     0.000     0.000     0.000 -0.0000  1.0000  0.0000
              Bcc     0.0000     0.000     0.000     0.000  0.0000  0.0000  1.0000
 
              Baa     0.0000     0.000     0.000     0.000  1.0000  0.0000  0.0000
    13 H(1)   Bbb     0.0000     0.000     0.000     0.000 -0.0000  1.0000  0.0000
              Bcc     0.0000     0.000     0.000     0.000  0.0000  0.0000  1.0000
 
              Baa     0.0000     0.000     0.000     0.000  1.0000  0.0000  0.0000
    14 H(1)   Bbb     0.0000     0.000     0.000     0.000 -0.0000  1.0000  0.0000
              Bcc     0.0000     0.000     0.000     0.000  0.0000  0.0000  1.0000
 
              Baa     0.0000     0.000     0.000     0.000  1.0000  0.0000  0.0000
    15 H(1)   Bbb     0.0000     0.000     0.000     0.000 -0.0000  1.0000  0.0000
              Bcc     0.0000     0.000     0.000     0.000  0.0000  0.0000  1.0000
 
              Baa     0.0000     0.000     0.000     0.000  1.0000  0.0000  0.0000
    16 H(1)   Bbb     0.0000     0.000     0.000     0.000 -0.0000  1.0000  0.0000
              Bcc     0.0000     0.000     0.000     0.000  0.0000  0.0000  1.0000
 

 ---------------------------------------------------------------------------------

 1\1\GINC-GAMBA\SP\ROHF\Gen\C5H10O1\IRIKURA\28-Sep-2023\0\\# rohf/gen g
 eom=check guess=check\\tetrahydropyran, ROHF/cc-pVTZ-F12\\0,1\O,0,-0.6
 55248,-1.267096,0.\C,0,0.62119,1.32616,0.\H,0,1.692615,1.099949,0.\H,0
 ,0.5315,2.413921,0.\C,0,-0.021098,0.729452,1.256478\C,0,-0.021098,0.72
 9452,-1.256478\C,0,-0.021098,-0.794439,-1.18138\C,0,-0.021098,-0.79443
 9,1.18138\H,0,0.508516,1.05094,2.156482\H,0,0.508516,1.05094,-2.156482
 \H,0,-1.053457,1.077733,1.346035\H,0,-1.053457,1.077733,-1.346035\H,0,
 1.011856,-1.171214,-1.218431\H,0,1.011856,-1.171214,1.218431\H,0,-0.56
 8378,-1.234568,-2.014054\H,0,-0.568378,-1.234568,2.014054\\Version=ES6
 4L-G16RevB.01\State=1-A'\HF=-270.1302876\RMSD=6.343e-09\Dipole=0.44810
 22,0.4743995,0.\Quadrupole=-0.5219353,-1.6603447,2.1822801,-1.465358,0
 .,0.\PG=CS [SG(C1H2O1),X(C4H8)]\\@


 Happiness is a conscious choice, not an automatic response.
 -- Mildred Barthel
 Job cpu time:       0 days  0 hours 20 minutes 15.6 seconds.
 Elapsed time:       0 days  0 hours  5 minutes  4.1 seconds.
 File lengths (MBytes):  RWF=    180 Int=      0 D2E=      0 Chk=     22 Scr=      1
 Normal termination of Gaussian 16 at Thu Sep 28 18:25:04 2023.
