 Entering Gaussian System, Link 0=g16
 AtFile(1): pcseg2.gbs
            -H     0
            S   4   1.00
                  0.754732D+02           0.427821D-02
                  0.113575D+02           0.328672D-01
                  0.260081D+01           0.159578D+00
                  0.735503D+00           0.500000D+00
            S   1   1.00
                  0.231761D+00           1.0000000
            S   1   1.00
                  0.741675D-01           1.0000000
            P   1   1.00
                  0.160000D+01           1.0000000
            P   1   1.00
                  0.450000D+00           1.0000000
            D   1   1.00
                  0.125000D+01           1.0000000
            ****
            -C     0
            S   7   1.00
                  0.731999D+04           0.695369D-03
                  0.109818D+04           0.537138D-02
                  0.250014D+03           0.274734D-01
                  0.707586D+02           0.105078D+00
                  0.228595D+02           0.291262D+00
                  0.803936D+01           0.500000D+00
                  0.289309D+01           0.362224D+00
            S   2   1.00
                  0.521640D+01          -0.957844D-01
                  0.556124D+00           0.500000D+00
            S   1   1.00
                  0.228813D+00           1.0000000
            S   1   1.00
                  0.936338D-01           1.0000000
            P   4   1.00
                  0.339855D+02           0.818395D-02
                  0.772957D+01           0.586921D-01
                  0.224954D+01           0.222514D+00
                  0.767681D+00           0.500000D+00
            P   1   1.00
                  0.263283D+00           1.0000000
            P   1   1.00
                  0.848744D-01           1.0000000
            D   1   1.00
                  0.140000D+01           1.0000000
            D   1   1.00
                  0.450000D+00           1.0000000
            F   1   1.00
                  0.950000D+00           1.0000000
            ****
            -O     0
            S   7   1.00
                  0.135887D+05           0.665492D-03
                  0.203847D+04           0.514222D-02
                  0.464041D+03           0.263472D-01
                  0.131339D+03           0.101500D+00
                  0.425340D+02           0.285877D+00
                  0.150429D+02           0.500000D+00
                  0.546616D+01           0.368211D+00
            S   2   1.00
                  0.100915D+02          -0.100084D+00
                  0.110429D+01           0.500000D+00
            S   1   1.00
                  0.448082D+00           1.0000000
            S   1   1.00
                  0.175325D+00           1.0000000
            P   4   1.00
                  0.608220D+02           0.908253D-02
                  0.140332D+02           0.645878D-01
                  0.418244D+01           0.241502D+00
                  0.142490D+01           0.500000D+00
            P   1   1.00
                  0.478741D+00           1.0000000
            P   1   1.00
                  0.146257D+00           1.0000000
            D   1   1.00
                  0.220000D+01           1.0000000
            D   1   1.00
                  0.650000D+00           1.0000000
            F   1   1.00
                  0.110000D+01           1.0000000
            ****
            -N     0
            S   7   1.00
                  0.101643D+05           0.682757D-03
                  0.152481D+04           0.527488D-02
                  0.347119D+03           0.270037D-01
                  0.982389D+02           0.103673D+00
                  0.317799D+02           0.289575D+00
                  0.112240D+02           0.500000D+00
                  0.406611D+01           0.364621D+00
            S   2   1.00
                  0.747898D+01          -0.975681D-01
                  0.805040D+00           0.500000D+00
            S   1   1.00
                  0.324626D+00           1.0000000
            S   1   1.00
                  0.128132D+00           1.0000000
            P   4   1.00
                  0.482704D+02           0.829547D-02
                  0.110815D+02           0.596223D-01
                  0.326643D+01           0.227889D+00
                  0.111680D+01           0.500000D+00
            P   1   1.00
                  0.382049D+00           1.0000000
            P   1   1.00
                  0.121222D+00           1.0000000
            D   1   1.00
                  0.180000D+01           1.0000000
            D   1   1.00
                  0.550000D+00           1.0000000
            F   1   1.00
                  0.102000D+01           1.0000000
            ****
            -F     0
            S   7   1.00
                  0.174507D+05           0.655972D-03
                  0.261768D+04           0.506944D-02
                  0.595857D+03           0.259899D-01
                  0.168651D+03           0.100353D+00
                  0.546654D+02           0.284095D+00
                  0.193717D+02           0.500000D+00
                  0.706202D+01           0.370721D+00
            S   2   1.00
                  0.131197D+02          -0.101997D+00
                  0.145046D+01           0.500000D+00
            S   1   1.00
                  0.588255D+00           1.0000000
            S   1   1.00
                  0.227960D+00           1.0000000
            P   4   1.00
                  0.779407D+02           0.931135D-02
                  0.180425D+02           0.663964D-01
                  0.542342D+01           0.246386D+00
                  0.184876D+01           0.500000D+00
            P   1   1.00
                  0.617455D+00           1.0000000
            P   1   1.00
                  0.185496D+00           1.0000000
            D   1   1.00
                  0.280000D+01           1.0000000
            D   1   1.00
                  0.800000D+00           1.0000000
            F   1   1.00
                  0.120000D+01           1.0000000
            ****
            -Cl     0
            S   8   1.00
                  0.154272D+06           0.222473D-03
                  0.231232D+05           0.172590D-02
                  0.526257D+04           0.899286D-02
                  0.148995D+04           0.367724D-01
                  0.485417D+03           0.121446D+00
                  0.174634D+03           0.304148D+00
                  0.672393D+02           0.500000D+00
                  0.265780D+02           0.360252D+00
            S   3   1.00
                  0.131826D+03          -0.531330D-01
                  0.400703D+02          -0.233346D+00
                  0.789448D+01           0.500000D+00
            S   2   1.00
                  0.427711D+01           0.500000D+00
                  0.196233D+01           0.370517D+00
            S   1   1.00
                  0.520793D+00           1.0000000
            S   1   1.00
                  0.181633D+00           1.0000000
            P   7   1.00
                  0.124440D+04           0.988206D-03
                  0.295109D+03           0.829674D-02
                  0.947224D+02           0.430906D-01
                  0.352588D+02           0.148443D+00
                  0.144211D+02           0.344744D+00
                  0.610371D+01           0.500000D+00
                  0.258886D+01           0.348278D+00
            P   2   1.00
                  0.109447D+02          -0.196768D-01
                  0.104413D+01           0.500000D+00
            P   1   1.00
                  0.376184D+00           1.0000000
            P   1   1.00
                  0.120613D+00           1.0000000
            D   1   1.00
                  0.231000D+01           1.0000000
            D   1   1.00
                  0.520000D+00           1.0000000
            F   1   1.00
                  0.720000D+00           1.0000000
            ****
            -S     0
            S   8   1.00
                  0.134700D+06           0.226231D-03
                  0.201904D+05           0.175488D-02
                  0.459528D+04           0.914190D-02
                  0.130109D+04           0.373551D-01
                  0.423902D+03           0.123121D+00
                  0.152485D+03           0.306801D+00
                  0.586925D+02           0.500000D+00
                  0.231461D+02           0.354358D+00
            S   3   1.00
                  0.116327D+03          -0.491772D-01
                  0.352841D+02          -0.215962D+00
                  0.677831D+01           0.500000D+00
            S   2   1.00
                  0.360404D+01           0.500000D+00
                  0.164871D+01           0.366278D+00
            S   1   1.00
                  0.421821D+00           1.0000000
            S   1   1.00
                  0.147554D+00           1.0000000
            P   7   1.00
                  0.104863D+04           0.105273D-02
                  0.248717D+03           0.879338D-02
                  0.797887D+02           0.453358D-01
                  0.296023D+02           0.154476D+00
                  0.120627D+02           0.352366D+00
                  0.507628D+01           0.500000D+00
                  0.213375D+01           0.346429D+00
            P   2   1.00
                  0.928958D+01          -0.185932D-01
                  0.837819D+00           0.500000D+00
            P   1   1.00
                  0.301495D+00           1.0000000
            P   1   1.00
                  0.974740D-01           1.0000000
            D   1   1.00
                  0.210000D+01           1.0000000
            D   1   1.00
                  0.480000D+00           1.0000000
            F   1   1.00
                  0.660000D+00           1.0000000
            ****
            -Br     0
            S    10   1.00
                  0.233625D+07           0.532336D-04
                  0.349961D+06           0.413715D-03
                  0.796444D+05           0.217123D-02
                  0.225555D+05           0.910109D-02
                  0.735546D+04           0.323789D-01
                  0.265352D+04           0.988755D-01
                  0.103517D+04           0.248138D+00
                  0.422205D+03           0.474328D+00
                  0.180035D+03           0.500000D+00
                  0.793308D+02           0.187769D+00
            S    4   1.00
                  0.620834D+03          -0.226511D-01
                  0.190829D+03          -0.109497D+00
                  0.312505D+02           0.500000D+00
                  0.135270D+02           0.492812D+00
            S    2   1.00
                  0.216097D+02          -0.165418D+00
                  0.372566D+01           0.500000D+00
            S    1   1.00
                  0.169770D+01           1.0000000
            S    1   1.00
                  0.489332D+00           1.0000000
            S    1   1.00
                  0.175712D+00           1.0000000
            P    8   1.00
                  0.960829D+04           0.478974D-03
                  0.227618D+04           0.417853D-02
                  0.736723D+03           0.229315D-01
                  0.281579D+03           0.892653D-01
                  0.118395D+03           0.255288D+00
                  0.527481D+02           0.479074D+00
                  0.245098D+02           0.500000D+00
                  0.112009D+02           0.200944D+00
            P    4   1.00
                  0.587849D+02          -0.189674D-01
                  0.918962D+01           0.264104D+00
                  0.413895D+01           0.500000D+00
                  0.184225D+01           0.319316D+00
            P    1   1.00
                  0.713862D+00           1.0000000
            P    1   1.00
                  0.274232D+00           1.0000000
            P    1   1.00
                  0.944411D-01           1.0000000
            D    7   1.00
                  0.398470D+03           0.204066D-02
                  0.118967D+03           0.175171D-01
                  0.450197D+02           0.829708D-01
                  0.190320D+02           0.236284D+00
                  0.855686D+01           0.428468D+00
                  0.382950D+01           0.500000D+00
                  0.166291D+01           0.349360D+00
            D    1   1.00
                  0.672953D+00           1.0000000
            D    1   1.00
                  0.252000D+00           1.0000000
            F    1   1.00
                  0.530000D+00           1.0000000
            ****
            -Si     0
            S    8   1.00
                  0.996133D+05           0.235546D-03
                  0.149311D+05           0.182707D-02
                  0.339820D+04           0.951425D-02
                  0.962140D+03           0.388172D-01
                  0.313430D+03           0.127328D+00
                  0.112683D+03           0.313522D+00
                  0.433372D+02           0.500000D+00
                  0.170029D+02           0.340347D+00
            S    3   1.00
                  0.884208D+02          -0.404451D-01
                  0.266756D+02          -0.178059D+00
                  0.479640D+01           0.500000D+00
            S    2   1.00
                  0.239385D+01           0.500000D+00
                  0.108333D+01           0.338016D+00
            S    1   1.00
                  0.252420D+00           1.0000000
            S    1   1.00
                  0.891210D-01           1.0000000
            P    7   1.00
                  0.709901D+03           0.123028D-02
                  0.168426D+03           0.101366D-01
                  0.539946D+02           0.511840D-01
                  0.198646D+02           0.169967D+00
                  0.801369D+01           0.370717D+00
                  0.331870D+01           0.500000D+00
                  0.136112D+01           0.344128D+00
            P    2   1.00
                  0.622158D+01          -0.166609D-01
                  0.503049D+00           0.500000D+00
            P    1   1.00
                  0.179848D+00           1.0000000
            P    1   1.00
                  0.591912D-01           1.0000000
            D    1   1.00
                  0.168000D+01           1.0000000
            D    1   1.00
                  0.380000D+00           1.0000000
            F    1   1.00
                  0.540000D+00           1.0000000
            ****
            -P     0
            S    8   1.00
                  0.116416D+06           0.230715D-03
                  0.174500D+05           0.178960D-02
                  0.397149D+04           0.932116D-02
                  0.112447D+04           0.380591D-01
                  0.366347D+03           0.125148D+00
                  0.131757D+03           0.310022D+00
                  0.506988D+02           0.500000D+00
                  0.199436D+02           0.347528D+00
            S    3   1.00
                  0.101878D+03          -0.446755D-01
                  0.308249D+02          -0.196376D+00
                  0.573688D+01           0.500000D+00
            S    2   1.00
                  0.296868D+01           0.500000D+00
                  0.135315D+01           0.355098D+00
            S    1   1.00
                  0.332196D+00           1.0000000
            S    1   1.00
                  0.116229D+00           1.0000000
            P    7   1.00
                  0.873928D+03           0.112375D-02
                  0.207298D+03           0.933330D-02
                  0.664628D+02           0.477213D-01
                  0.245665D+02           0.160733D+00
                  0.996820D+01           0.359760D+00
                  0.416536D+01           0.500000D+00
                  0.173022D+01           0.346593D+00
            P    2   1.00
                  0.772530D+01          -0.175718D-01
                  0.657252D+00           0.500000D+00
            P    1   1.00
                  0.239903D+00           1.0000000
            P    1   1.00
                  0.800988D-01           1.0000000
            D    1   1.00
                  0.189000D+01           1.0000000
            D    1   1.00
                  0.430000D+00           1.0000000
            F    1   1.00
                  0.600000D+00           1.0000000
            ****
            
 Initial command:
 /usr/local/apps/g16_b01_avx/g16/l1.exe "/wrk/irikura/Gau-30393.inp" -scrdir="/wrk/irikura/"
 Entering Link 1 = /usr/local/apps/g16_b01_avx/g16/l1.exe PID=     30395.
  
 Copyright (c) 1988-2017, Gaussian, Inc.  All Rights Reserved.
  
 This is part of the Gaussian(R) 16 program.  It is based on
 the Gaussian(R) 09 system (copyright 2009, Gaussian, Inc.),
 the Gaussian(R) 03 system (copyright 2003, Gaussian, Inc.),
 the Gaussian(R) 98 system (copyright 1998, Gaussian, Inc.),
 the Gaussian(R) 94 system (copyright 1995, Gaussian, Inc.),
 the Gaussian 92(TM) system (copyright 1992, Gaussian, Inc.),
 the Gaussian 90(TM) system (copyright 1990, Gaussian, Inc.),
 the Gaussian 88(TM) system (copyright 1988, Gaussian, Inc.),
 the Gaussian 86(TM) system (copyright 1986, Carnegie Mellon
 University), and the Gaussian 82(TM) system (copyright 1983,
 Carnegie Mellon University). Gaussian is a federally registered
 trademark of Gaussian, Inc.
  
 This software contains proprietary and confidential information,
 including trade secrets, belonging to Gaussian, Inc.
  
 This software is provided under written license and may be
 used, copied, transmitted, or stored only in accord with that
 written license.
  
 The following legend is applicable only to US Government
 contracts under FAR:
  
                    RESTRICTED RIGHTS LEGEND
  
 Use, reproduction and disclosure by the US Government is
 subject to restrictions as set forth in subparagraphs (a)
 and (c) of the Commercial Computer Software - Restricted
 Rights clause in FAR 52.227-19.
  
 Gaussian, Inc.
 340 Quinnipiac St., Bldg. 40, Wallingford CT 06492
  
  
 ---------------------------------------------------------------
 Warning -- This program may not be used in any manner that
 competes with the business of Gaussian, Inc. or will provide
 assistance to any competitor of Gaussian, Inc.  The licensee
 of this program is prohibited from giving any competitor of
 Gaussian, Inc. access to this program.  By using this program,
 the user acknowledges that Gaussian, Inc. is engaged in the
 business of creating and licensing software in the field of
 computational chemistry and represents and warrants to the
 licensee that it is not a competitor of Gaussian, Inc. and that
 it will not use this program in any manner prohibited above.
 ---------------------------------------------------------------
  

 Cite this work as:
 Gaussian 16, Revision B.01,
 M. J. Frisch, G. W. Trucks, H. B. Schlegel, G. E. Scuseria, 
 M. A. Robb, J. R. Cheeseman, G. Scalmani, V. Barone, 
 G. A. Petersson, H. Nakatsuji, X. Li, M. Caricato, A. V. Marenich, 
 J. Bloino, B. G. Janesko, R. Gomperts, B. Mennucci, H. P. Hratchian, 
 J. V. Ortiz, A. F. Izmaylov, J. L. Sonnenberg, D. Williams-Young, 
 F. Ding, F. Lipparini, F. Egidi, J. Goings, B. Peng, A. Petrone, 
 T. Henderson, D. Ranasinghe, V. G. Zakrzewski, J. Gao, N. Rega, 
 G. Zheng, W. Liang, M. Hada, M. Ehara, K. Toyota, R. Fukuda, 
 J. Hasegawa, M. Ishida, T. Nakajima, Y. Honda, O. Kitao, H. Nakai, 
 T. Vreven, K. Throssell, J. A. Montgomery, Jr., J. E. Peralta, 
 F. Ogliaro, M. J. Bearpark, J. J. Heyd, E. N. Brothers, K. N. Kudin, 
 V. N. Staroverov, T. A. Keith, R. Kobayashi, J. Normand, 
 K. Raghavachari, A. P. Rendell, J. C. Burant, S. S. Iyengar, 
 J. Tomasi, M. Cossi, J. M. Millam, M. Klene, C. Adamo, R. Cammi, 
 J. W. Ochterski, R. L. Martin, K. Morokuma, O. Farkas, 
 J. B. Foresman, and D. J. Fox, Gaussian, Inc., Wallingford CT, 2016.
 
 ******************************************
 Gaussian 16:  ES64L-G16RevB.01 20-Dec-2017
                15-Jun-2022 
 ******************************************
 %mem=1000mw
 %nprocs=12
 Will use up to   12 processors via shared memory.
 --------------------
 # b3lyp/gen opt freq
 --------------------
 1/18=20,19=15,26=3,38=1/1,3;
 2/9=110,12=2,17=6,18=5,40=1/2;
 3/5=7,11=2,25=1,30=1,71=1,74=-5/1,2,3;
 4//1;
 5/5=2,38=5/2;
 6/7=2,8=2,9=2,10=2,28=1/1;
 7//1,2,3,16;
 1/18=20,19=15,26=3/3(2);
 2/9=110/2;
 99//99;
 2/9=110/2;
 3/5=7,6=1,11=2,25=1,30=1,71=1,74=-5,82=7/1,2,3;
 4/5=5,16=3,69=1/1;
 5/5=2,38=5/2;
 7//1,2,3,16;
 1/18=20,19=15,26=3/3(-5);
 2/9=110/2;
 6/7=2,8=2,9=2,10=2,19=2,28=1/1;
 99/9=1/99;
 -----------------------------
 trimethylamine, B3LYP/pcseg-2
 -----------------------------
 Symbolic Z-matrix:
 Charge =  0 Multiplicity = 1
 N                     0.        0.        0.36593 
 C                     0.        1.38828  -0.05962 
 C                     1.20228  -0.69414  -0.05962 
 C                    -1.20228  -0.69414  -0.05962 
 H                     0.        1.5083   -1.16153 
 H                     1.30623  -0.75415  -1.16153 
 H                    -1.30623  -0.75415  -1.16153 
 H                    -0.88629   1.89745   0.33272 
 H                     0.88629   1.89745   0.33272 
 H                     2.08638  -0.18118   0.33272 
 H                     1.20009  -1.71627   0.33272 
 H                    -1.20009  -1.71627   0.33272 
 H                    -2.08638  -0.18118   0.33272 
 X                     0.        0.        1.36593 
 

 GradGradGradGradGradGradGradGradGradGradGradGradGradGradGradGradGradGrad
 Berny optimization.
 Initialization pass.
                           ----------------------------
                           !    Initial Parameters    !
                           ! (Angstroms and Degrees)  !
 --------------------------                            --------------------------
 ! Name  Definition              Value          Derivative Info.                !
 --------------------------------------------------------------------------------
 ! R1    R(1,2)                  1.452          estimate D2E/DX2                !
 ! R2    R(1,3)                  1.452          estimate D2E/DX2                !
 ! R3    R(1,4)                  1.452          estimate D2E/DX2                !
 ! R4    R(2,5)                  1.1084         estimate D2E/DX2                !
 ! R5    R(2,8)                  1.0948         estimate D2E/DX2                !
 ! R6    R(2,9)                  1.0948         estimate D2E/DX2                !
 ! R7    R(3,6)                  1.1084         estimate D2E/DX2                !
 ! R8    R(3,10)                 1.0948         estimate D2E/DX2                !
 ! R9    R(3,11)                 1.0948         estimate D2E/DX2                !
 ! R10   R(4,7)                  1.1084         estimate D2E/DX2                !
 ! R11   R(4,12)                 1.0948         estimate D2E/DX2                !
 ! R12   R(4,13)                 1.0948         estimate D2E/DX2                !
 ! A1    A(2,1,3)              111.7875         estimate D2E/DX2                !
 ! A2    A(2,1,4)              111.7875         estimate D2E/DX2                !
 ! A3    A(3,1,4)              111.7875         estimate D2E/DX2                !
 ! A4    A(1,2,5)              113.2582         estimate D2E/DX2                !
 ! A5    A(1,2,8)              109.8536         estimate D2E/DX2                !
 ! A6    A(1,2,9)              109.8536         estimate D2E/DX2                !
 ! A7    A(5,2,8)              107.8117         estimate D2E/DX2                !
 ! A8    A(5,2,9)              107.8117         estimate D2E/DX2                !
 ! A9    A(8,2,9)              108.0955         estimate D2E/DX2                !
 ! A10   A(1,3,6)              113.2582         estimate D2E/DX2                !
 ! A11   A(1,3,10)             109.8536         estimate D2E/DX2                !
 ! A12   A(1,3,11)             109.8536         estimate D2E/DX2                !
 ! A13   A(6,3,10)             107.8117         estimate D2E/DX2                !
 ! A14   A(6,3,11)             107.8117         estimate D2E/DX2                !
 ! A15   A(10,3,11)            108.0955         estimate D2E/DX2                !
 ! A16   A(1,4,7)              113.2582         estimate D2E/DX2                !
 ! A17   A(1,4,12)             109.8536         estimate D2E/DX2                !
 ! A18   A(1,4,13)             109.8536         estimate D2E/DX2                !
 ! A19   A(7,4,12)             107.8117         estimate D2E/DX2                !
 ! A20   A(7,4,13)             107.8117         estimate D2E/DX2                !
 ! A21   A(12,4,13)            108.0955         estimate D2E/DX2                !
 ! D1    D(3,1,2,5)             63.0871         estimate D2E/DX2                !
 ! D2    D(3,1,2,8)           -176.3038         estimate D2E/DX2                !
 ! D3    D(3,1,2,9)            -57.522          estimate D2E/DX2                !
 ! D4    D(4,1,2,5)            -63.0871         estimate D2E/DX2                !
 ! D5    D(4,1,2,8)             57.522          estimate D2E/DX2                !
 ! D6    D(4,1,2,9)            176.3038         estimate D2E/DX2                !
 ! D7    D(2,1,3,6)            -63.0871         estimate D2E/DX2                !
 ! D8    D(2,1,3,10)            57.522          estimate D2E/DX2                !
 ! D9    D(2,1,3,11)           176.3037         estimate D2E/DX2                !
 ! D10   D(4,1,3,6)             63.0871         estimate D2E/DX2                !
 ! D11   D(4,1,3,10)          -176.3038         estimate D2E/DX2                !
 ! D12   D(4,1,3,11)           -57.522          estimate D2E/DX2                !
 ! D13   D(2,1,4,7)             63.0871         estimate D2E/DX2                !
 ! D14   D(2,1,4,12)          -176.3037         estimate D2E/DX2                !
 ! D15   D(2,1,4,13)           -57.522          estimate D2E/DX2                !
 ! D16   D(3,1,4,7)            -63.0871         estimate D2E/DX2                !
 ! D17   D(3,1,4,12)            57.522          estimate D2E/DX2                !
 ! D18   D(3,1,4,13)           176.3038         estimate D2E/DX2                !
 --------------------------------------------------------------------------------
 Trust Radius=3.00D-01 FncErr=1.00D-07 GrdErr=1.00D-06 EigMax=2.50D+02 EigMin=1.00D-04
 Number of steps in this run=     61 maximum allowed number of steps=    100.
 GradGradGradGradGradGradGradGradGradGradGradGradGradGradGradGradGradGrad

                          Input orientation:                          
 ---------------------------------------------------------------------
 Center     Atomic      Atomic             Coordinates (Angstroms)
 Number     Number       Type             X           Y           Z
 ---------------------------------------------------------------------
      1          7           0        0.000000    0.000000    0.365925
      2          6           0        0.000000    1.388276   -0.059622
      3          6           0        1.202282   -0.694138   -0.059622
      4          6           0       -1.202282   -0.694138   -0.059622
      5          1           0        0.000000    1.508300   -1.161534
      6          1           0        1.306226   -0.754150   -1.161534
      7          1           0       -1.306226   -0.754150   -1.161534
      8          1           0       -0.886285    1.897446    0.332721
      9          1           0        0.886285    1.897446    0.332721
     10          1           0        2.086379   -0.181177    0.332721
     11          1           0        1.200094   -1.716268    0.332721
     12          1           0       -1.200094   -1.716268    0.332721
     13          1           0       -2.086379   -0.181177    0.332721
 ---------------------------------------------------------------------
                    Distance matrix (angstroms):
                    1          2          3          4          5
     1  N    0.000000
     2  C    1.452033   0.000000
     3  C    1.452033   2.404564   0.000000
     4  C    1.452033   2.404564   2.404564   0.000000
     5  H    2.146649   1.108429   2.740516   2.740516   0.000000
     6  H    2.146648   2.740516   1.108429   2.740515   2.612452
     7  H    2.146648   2.740516   2.740515   1.108429   2.612452
     8  H    2.094494   1.094846   3.351470   2.640094   1.780375
     9  H    2.094494   1.094846   2.640094   3.351470   1.780375
    10  H    2.094494   2.640093   1.094847   3.351470   3.072476
    11  H    2.094494   3.351470   1.094846   2.640093   3.751115
    12  H    2.094494   3.351470   2.640093   1.094846   3.751115
    13  H    2.094494   2.640093   3.351470   1.094847   3.072476
                    6          7          8          9         10
     6  H    0.000000
     7  H    2.612452   0.000000
     8  H    3.751115   3.072476   0.000000
     9  H    3.072476   3.751115   1.772570   0.000000
    10  H    1.780375   3.751115   3.627314   2.400187   0.000000
    11  H    1.780374   3.072476   4.172758   3.627314   1.772570
    12  H    3.072476   1.780374   3.627314   4.172758   3.627314
    13  H    3.751115   1.780375   2.400187   3.627314   4.172758
                   11         12         13
    11  H    0.000000
    12  H    2.400188   0.000000
    13  H    3.627314   1.772570   0.000000
 Stoichiometry    C3H9N
 Framework group  C3V[C3(N),3SGV(CH),X(H6)]
 Deg. of freedom     7
 Full point group                 C3V     NOp   6
 Largest Abelian subgroup         CS      NOp   2
 Largest concise Abelian subgroup CS      NOp   2
                         Standard orientation:                         
 ---------------------------------------------------------------------
 Center     Atomic      Atomic             Coordinates (Angstroms)
 Number     Number       Type             X           Y           Z
 ---------------------------------------------------------------------
      1          7           0        0.000000   -0.000000    0.365925
      2          6           0        0.000000    1.388276   -0.059622
      3          6           0        1.202282   -0.694138   -0.059622
      4          6           0       -1.202282   -0.694138   -0.059622
      5          1           0        0.000000    1.508300   -1.161534
      6          1           0        1.306226   -0.754150   -1.161534
      7          1           0       -1.306226   -0.754150   -1.161534
      8          1           0       -0.886285    1.897446    0.332721
      9          1           0        0.886285    1.897446    0.332721
     10          1           0        2.086379   -0.181178    0.332721
     11          1           0        1.200094   -1.716268    0.332721
     12          1           0       -1.200094   -1.716268    0.332721
     13          1           0       -2.086379   -0.181178    0.332721
 ---------------------------------------------------------------------
 Rotational constants (GHZ):           8.6975797           8.6975797           4.9169895
 General basis read from cards:  (5D, 7F)
 There are   154 symmetry adapted cartesian basis functions of A'  symmetry.
 There are   121 symmetry adapted cartesian basis functions of A"  symmetry.
 There are   136 symmetry adapted basis functions of A'  symmetry.
 There are   110 symmetry adapted basis functions of A"  symmetry.
   246 basis functions,   366 primitive gaussians,   275 cartesian basis functions
    17 alpha electrons       17 beta electrons
       nuclear repulsion energy       138.4037027045 Hartrees.
 NAtoms=   13 NActive=   13 NUniq=    4 SFac= 4.00D+00 NAtFMM=   60 NAOKFM=F Big=F
 Integral buffers will be    131072 words long.
 Raffenetti 2 integral format.
 Two-electron integral symmetry is turned on.
 One-electron integrals computed using PRISM.
 NBasis=   246 RedAO= T EigKep=  8.10D-04  NBF=   136   110
 NBsUse=   246 1.00D-06 EigRej= -1.00D+00 NBFU=   136   110
 ExpMin= 7.42D-02 ExpMax= 1.02D+04 ExpMxC= 3.47D+02 IAcc=3 IRadAn=         5 AccDes= 0.00D+00
 Harris functional with IExCor=  402 and IRadAn=       5 diagonalized for initial guess.
 HarFok:  IExCor=  402 AccDes= 0.00D+00 IRadAn=         5 IDoV= 1 UseB2=F ITyADJ=14
 ICtDFT=  3500011 ScaDFX=  1.000000  1.000000  1.000000  1.000000
 FoFCou: FMM=F IPFlag=           0 FMFlag=      100000 FMFlg1=           0
         NFxFlg=           0 DoJE=T BraDBF=F KetDBF=T FulRan=T
         wScrn=  0.000000 ICntrl=       500 IOpCl=  0 I1Cent=   200000004 NGrid=           0
         NMat0=    1 NMatS0=      1 NMatT0=    0 NMatD0=    1 NMtDS0=    0 NMtDT0=    0
 Petite list used in FoFCou.
 Initial guess orbital symmetries:
       Occupied  (A1) (E) (E) (A1) (A1) (E) (E) (A1) (E) (E) (A1)
                 (E) (E) (A2) (E) (E) (A1)
       Virtual   (A1) (E) (E) (A1) (A1) (E) (E) (E) (E) (E) (E)
                 (A2) (A1) (E) (E) (E) (E) (A1) (E) (E) (A2) (A1)
                 (A1) (E) (E) (E) (E) (A2) (A1) (E) (E) (A1) (E)
                 (E) (E) (E) (A1) (E) (E) (A1) (E) (E) (A2) (E)
                 (E) (A1) (E) (E) (A2) (E) (E) (E) (E) (A1) (A2)
                 (E) (E) (A2) (E) (E) (A1) (A1) (E) (E) (E) (E)
                 (A1) (E) (E) (A1) (A1) (E) (E) (E) (E) (E) (E)
                 (A1) (A2) (A2) (E) (E) (E) (E) (A2) (A1) (E) (E)
                 (A1) (E) (E) (E) (E) (A1) (A1) (E) (E) (E) (E)
                 (A2) (E) (E) (A1) (E) (E) (A1) (E) (E) (E) (E)
                 (A1) (A2) (A1) (E) (E) (A2) (E) (E) (E) (E) (A1)
                 (A2) (E) (E) (A1) (E) (E) (A1) (A2) (E) (E) (E)
                 (E) (E) (E) (A2) (E) (E) (A1) (E) (E) (A2) (A1)
                 (E) (E) (A2) (E) (E) (A1) (E) (E) (A1) (E) (E)
                 (E) (E) (E) (E) (A1) (A2) (E) (E) (A2) (A1) (E)
                 (E) (E) (E) (E) (E) (A2) (E) (E) (A1) (E) (E)
                 (A1) (A1) (E) (E) (A2) (A1) (E) (E) (A1) (E) (E)
                 (A2) (A1) (E) (E) (E) (E) (E) (E) (A1) (A2) (E)
                 (E) (E) (E) (A1) (A2) (E) (E) (A2) (A1) (E) (E)
                 (E) (E) (E) (E) (A1) (E) (E) (A2) (A1) (E) (E)
                 (E) (E) (A1) (E) (E) (A2) (E) (E) (A1)
 The electronic state of the initial guess is 1-A1.
 Keep R1 ints in memory in symmetry-blocked form, NReq=692402913.
 Requested convergence on RMS density matrix=1.00D-08 within 128 cycles.
 Requested convergence on MAX density matrix=1.00D-06.
 Requested convergence on             energy=1.00D-06.
 No special actions if energy rises.
 Integral accuracy reduced to 1.0D-05 until final iterations.
 Initial convergence to 1.0D-05 achieved.  Increase integral accuracy.
 SCF Done:  E(RB3LYP) =  -174.548160887     A.U. after   11 cycles
            NFock= 11  Conv=0.84D-08     -V/T= 2.0048

 **********************************************************************

            Population analysis using the SCF Density.

 **********************************************************************

 Orbital symmetries:
       Occupied  (A1) (E) (E) (A1) (A1) (E) (E) (A1) (E) (E) (A1)
                 (E) (E) (A2) (E) (E) (A1)
       Virtual   (A1) (E) (E) (A1) (E) (E) (A1) (E) (E) (A2) (E)
                 (E) (A1) (E) (E) (E) (E) (E) (E) (A2) (A1) (A1)
                 (A1) (E) (E) (E) (E) (A2) (A1) (E) (E) (A1) (E)
                 (E) (E) (E) (A1) (E) (E) (A1) (E) (E) (A2) (E)
                 (E) (E) (E) (A1) (A2) (E) (E) (E) (E) (A2) (A1)
                 (E) (E) (A2) (E) (E) (A1) (A1) (E) (E) (E) (E)
                 (A1) (E) (E) (A1) (A1) (E) (E) (E) (E) (E) (E)
                 (A1) (A2) (A2) (E) (E) (E) (E) (A2) (A1) (E) (E)
                 (A1) (E) (E) (E) (E) (A1) (A1) (E) (E) (E) (E)
                 (A1) (A2) (E) (E) (E) (E) (A1) (E) (E) (E) (E)
                 (A1) (A2) (E) (E) (A1) (A2) (E) (E) (E) (E) (A1)
                 (A2) (E) (E) (A1) (E) (E) (A2) (A1) (E) (E) (E)
                 (E) (E) (E) (A2) (E) (E) (A1) (E) (E) (A2) (A1)
                 (E) (E) (A2) (E) (E) (A1) (E) (E) (E) (E) (A1)
                 (E) (E) (A1) (A2) (E) (E) (E) (E) (A1) (A2) (E)
                 (E) (E) (E) (A2) (E) (E) (E) (E) (A1) (E) (E)
                 (A1) (A1) (A2) (E) (E) (A1) (E) (E) (A1) (E) (E)
                 (A2) (A1) (E) (E) (E) (E) (E) (E) (A1) (A2) (E)
                 (E) (E) (E) (A1) (A2) (A2) (E) (E) (A1) (E) (E)
                 (E) (E) (E) (E) (E) (E) (A1) (A2) (A1) (E) (E)
                 (E) (E) (A1) (E) (E) (A2) (E) (E) (A1)
 The electronic state is 1-A1.
 Alpha  occ. eigenvalues --  -14.30652 -10.18749 -10.18749 -10.18749  -0.92188
 Alpha  occ. eigenvalues --   -0.70526  -0.70526  -0.59164  -0.46894  -0.46894
 Alpha  occ. eigenvalues --   -0.46649  -0.39430  -0.39430  -0.37063  -0.36400
 Alpha  occ. eigenvalues --   -0.36400  -0.21876
 Alpha virt. eigenvalues --    0.01099   0.04750   0.04750   0.06506   0.07245
 Alpha virt. eigenvalues --    0.07245   0.08484   0.10907   0.10907   0.13361
 Alpha virt. eigenvalues --    0.16100   0.16100   0.16403   0.18332   0.18332
 Alpha virt. eigenvalues --    0.27095   0.27095   0.28274   0.28274   0.30350
 Alpha virt. eigenvalues --    0.31355   0.32871   0.34550   0.35181   0.35181
 Alpha virt. eigenvalues --    0.35968   0.35968   0.37311   0.38532   0.38715
 Alpha virt. eigenvalues --    0.38715   0.46125   0.47627   0.47627   0.54505
 Alpha virt. eigenvalues --    0.54505   0.58627   0.73929   0.73929   0.78446
 Alpha virt. eigenvalues --    0.82364   0.82364   0.85340   0.90051   0.90051
 Alpha virt. eigenvalues --    0.93027   0.93027   0.93320   0.98474   1.00052
 Alpha virt. eigenvalues --    1.00052   1.05129   1.05129   1.05394   1.06085
 Alpha virt. eigenvalues --    1.08308   1.08308   1.08383   1.12409   1.12409
 Alpha virt. eigenvalues --    1.15207   1.20722   1.23334   1.23334   1.28139
 Alpha virt. eigenvalues --    1.28139   1.28748   1.34839   1.34839   1.37492
 Alpha virt. eigenvalues --    1.47051   1.47965   1.47965   1.55172   1.55172
 Alpha virt. eigenvalues --    1.58541   1.58541   1.63897   1.66727   1.71377
 Alpha virt. eigenvalues --    1.75605   1.75605   1.80190   1.80190   1.85230
 Alpha virt. eigenvalues --    1.87353   1.88013   1.88013   1.90106   1.96838
 Alpha virt. eigenvalues --    1.96838   2.12459   2.12459   2.21993   2.24941
 Alpha virt. eigenvalues --    2.26670   2.26670   2.50396   2.50396   2.53491
 Alpha virt. eigenvalues --    2.53543   2.54213   2.54213   2.60931   2.60931
 Alpha virt. eigenvalues --    2.62119   2.99232   2.99232   3.18199   3.18199
 Alpha virt. eigenvalues --    3.23340   3.24627   3.27444   3.27444   3.28058
 Alpha virt. eigenvalues --    3.28458   3.34420   3.34420   3.43040   3.43040
 Alpha virt. eigenvalues --    3.43458   3.49295   3.50435   3.50435   3.63950
 Alpha virt. eigenvalues --    3.68010   3.68010   3.77565   3.78234   3.79082
 Alpha virt. eigenvalues --    3.79082   3.81174   3.81174   3.85694   3.85694
 Alpha virt. eigenvalues --    3.86683   3.89623   3.89623   3.90984   3.94993
 Alpha virt. eigenvalues --    3.94993   3.95543   4.10544   4.17320   4.17320
 Alpha virt. eigenvalues --    4.18794   4.24785   4.24785   4.29010   4.29340
 Alpha virt. eigenvalues --    4.29340   4.38827   4.38827   4.39730   4.42522
 Alpha virt. eigenvalues --    4.42522   4.46480   4.46581   4.47584   4.47584
 Alpha virt. eigenvalues --    4.54486   4.54486   4.60985   4.62156   4.62379
 Alpha virt. eigenvalues --    4.62379   4.63143   4.63143   4.68731   4.69567
 Alpha virt. eigenvalues --    4.69567   4.71127   4.71127   4.72814   4.75147
 Alpha virt. eigenvalues --    4.75147   4.78810   4.83947   4.87992   4.88553
 Alpha virt. eigenvalues --    4.88553   4.98843   5.01292   5.01292   5.12508
 Alpha virt. eigenvalues --    5.13648   5.13648   5.14350   5.25208   5.29934
 Alpha virt. eigenvalues --    5.29934   5.42030   5.42030   5.47392   5.47392
 Alpha virt. eigenvalues --    5.55310   5.59726   5.66195   5.66195   5.69315
 Alpha virt. eigenvalues --    5.69315   5.71328   5.78803   5.80647   5.81289
 Alpha virt. eigenvalues --    5.81289   5.81750   5.82799   5.82799   5.87924
 Alpha virt. eigenvalues --    5.87924   5.93018   5.93018   5.97072   5.97072
 Alpha virt. eigenvalues --    5.98039   6.01583   6.03037   6.13570   6.13570
 Alpha virt. eigenvalues --    6.16230   6.16230   6.18818   6.29779   6.29779
 Alpha virt. eigenvalues --    6.32475   6.49703   6.49703   7.61368
          Condensed to atoms (all electrons):
               1          2          3          4          5          6
     1  N    6.748119   0.323522   0.323522   0.323522  -0.061319  -0.061319
     2  C    0.323522   4.523178  -0.065646  -0.065646   0.419728  -0.013913
     3  C    0.323522  -0.065646   4.523178  -0.065646  -0.013913   0.419728
     4  C    0.323522  -0.065646  -0.065646   4.523178  -0.013913  -0.013913
     5  H   -0.061319   0.419728  -0.013913  -0.013913   0.730911   0.026671
     6  H   -0.061319  -0.013913   0.419728  -0.013913   0.026671   0.730911
     7  H   -0.061319  -0.013913  -0.013913   0.419728   0.026671   0.026671
     8  H   -0.037827   0.417764   0.011474  -0.005826  -0.049879  -0.001960
     9  H   -0.037827   0.417764  -0.005826   0.011474  -0.049879  -0.005829
    10  H   -0.037827  -0.005826   0.417764   0.011474  -0.005829  -0.049879
    11  H   -0.037827   0.011474   0.417764  -0.005826  -0.001960  -0.049879
    12  H   -0.037827   0.011474  -0.005826   0.417764  -0.001960  -0.005829
    13  H   -0.037827  -0.005826   0.011474   0.417764  -0.005829  -0.001960
               7          8          9         10         11         12
     1  N   -0.061319  -0.037827  -0.037827  -0.037827  -0.037827  -0.037827
     2  C   -0.013913   0.417764   0.417764  -0.005826   0.011474   0.011474
     3  C   -0.013913   0.011474  -0.005826   0.417764   0.417764  -0.005826
     4  C    0.419728  -0.005826   0.011474   0.011474  -0.005826   0.417764
     5  H    0.026671  -0.049879  -0.049879  -0.005829  -0.001960  -0.001960
     6  H    0.026671  -0.001960  -0.005829  -0.049879  -0.049879  -0.005829
     7  H    0.730911  -0.005829  -0.001960  -0.001960  -0.005829  -0.049879
     8  H   -0.005829   0.648267  -0.012597   0.001018  -0.000150   0.001018
     9  H   -0.001960  -0.012597   0.648267   0.006419   0.001018  -0.000150
    10  H   -0.001960   0.001018   0.006419   0.648267  -0.012597   0.001018
    11  H   -0.005829  -0.000150   0.001018  -0.012597   0.648267   0.006419
    12  H   -0.049879   0.001018  -0.000150   0.001018   0.006419   0.648267
    13  H   -0.049879   0.006419   0.001018  -0.000150   0.001018  -0.012597
              13
     1  N   -0.037827
     2  C   -0.005826
     3  C    0.011474
     4  C    0.417764
     5  H   -0.005829
     6  H   -0.001960
     7  H   -0.049879
     8  H    0.006419
     9  H    0.001018
    10  H   -0.000150
    11  H    0.001018
    12  H   -0.012597
    13  H    0.648267
 Mulliken charges:
               1
     1  N   -0.307762
     2  C    0.045868
     3  C    0.045868
     4  C    0.045868
     5  H    0.000503
     6  H    0.000503
     7  H    0.000503
     8  H    0.028108
     9  H    0.028108
    10  H    0.028108
    11  H    0.028108
    12  H    0.028108
    13  H    0.028108
 Sum of Mulliken charges =  -0.00000
 Mulliken charges with hydrogens summed into heavy atoms:
               1
     1  N   -0.307762
     2  C    0.102587
     3  C    0.102587
     4  C    0.102587
 Electronic spatial extent (au):  <R**2>=            324.8725
 Charge=             -0.0000 electrons
 Dipole moment (field-independent basis, Debye):
    X=              0.0000    Y=              0.0000    Z=             -0.4916  Tot=              0.4916
 Quadrupole moment (field-independent basis, Debye-Ang):
   XX=            -26.7246   YY=            -26.7246   ZZ=            -30.2671
   XY=             -0.0000   XZ=              0.0000   YZ=             -0.0000
 Traceless Quadrupole moment (field-independent basis, Debye-Ang):
   XX=              1.1808   YY=              1.1808   ZZ=             -2.3616
   XY=             -0.0000   XZ=              0.0000   YZ=             -0.0000
 Octapole moment (field-independent basis, Debye-Ang**2):
  XXX=             -0.0000  YYY=             -0.8797  ZZZ=             -0.3019  XYY=              0.0000
  XXY=              0.8797  XXZ=              2.5333  XZZ=              0.0000  YZZ=             -0.0000
  YYZ=              2.5333  XYZ=             -0.0000
 Hexadecapole moment (field-independent basis, Debye-Ang**3):
 XXXX=           -197.1055 YYYY=           -197.1055 ZZZZ=            -65.8891 XXXY=              0.0000
 XXXZ=             -0.0000 YYYX=              0.0000 YYYZ=             -1.1623 ZZZX=             -0.0000
 ZZZY=              0.0000 XXYY=            -65.7018 XXZZ=            -44.8208 YYZZ=            -44.8208
 XXYZ=              1.1623 YYXZ=              0.0000 ZZXY=              0.0000
 N-N= 1.384037027045D+02 E-N=-6.815335262341D+02  KE= 1.737089232096D+02
 Symmetry A'   KE= 1.295799784135D+02
 Symmetry A"   KE= 4.412894479604D+01
 Calling FoFJK, ICntrl=      2127 FMM=F ISym2X=1 I1Cent= 0 IOpClX= 0 NMat=1 NMatS=1 NMatT=0.
 ***** Axes restored to original set *****
 -------------------------------------------------------------------
 Center     Atomic                   Forces (Hartrees/Bohr)
 Number     Number              X              Y              Z
 -------------------------------------------------------------------
      1        7           0.000000000   -0.000000000   -0.002204331
      2        6           0.000000000    0.003230180    0.000362235
      3        6           0.002797418   -0.001615090    0.000362235
      4        6          -0.002797418   -0.001615090    0.000362235
      5        1           0.000000000   -0.000956203    0.002226367
      6        1          -0.000828096    0.000478101    0.002226367
      7        1           0.000828096    0.000478101    0.002226367
      8        1           0.002415883   -0.001295598   -0.000926912
      9        1          -0.002415883   -0.001295598   -0.000926912
     10        1          -0.002329962   -0.001444417   -0.000926912
     11        1           0.000085921    0.002740015   -0.000926912
     12        1          -0.000085921    0.002740015   -0.000926912
     13        1           0.002329962   -0.001444417   -0.000926912
 -------------------------------------------------------------------
 Cartesian Forces:  Max     0.003230180 RMS     0.001636235

 GradGradGradGradGradGradGradGradGradGradGradGradGradGradGradGradGradGrad
 Berny optimization.
 FormGI is forming the generalized inverse of G from B-inverse, IUseBI=4.
 Internal  Forces:  Max     0.002890368 RMS     0.001186129
 Search for a local minimum.
 Step number   1 out of a maximum of   61
 All quantities printed in internal units (Hartrees-Bohrs-Radians)
 Mixed Optimization -- RFO/linear search
 Second derivative matrix not updated -- first step.
 ITU=  0
     Eigenvalues ---    0.01003   0.01003   0.01003   0.02756   0.07171
     Eigenvalues ---    0.07171   0.07171   0.07566   0.07566   0.07566
     Eigenvalues ---    0.16000   0.16000   0.16000   0.16000   0.16000
     Eigenvalues ---    0.16000   0.16000   0.16000   0.16000   0.17573
     Eigenvalues ---    0.17573   0.32767   0.32767   0.32767   0.34259
     Eigenvalues ---    0.34259   0.34259   0.34259   0.34259   0.34259
     Eigenvalues ---    0.37980   0.37980   0.37980
 RFO step:  Lambda=-2.28276596D-04 EMin= 1.00348125D-02
 Linear search not attempted -- first point.
 Iteration  1 RMS(Cart)=  0.00465861 RMS(Int)=  0.00001056
 Iteration  2 RMS(Cart)=  0.00001145 RMS(Int)=  0.00000088
 Iteration  3 RMS(Cart)=  0.00000000 RMS(Int)=  0.00000088
 ClnCor:  largest displacement from symmetrization is 4.69D-12 for atom    13.
 Variable       Old X    -DE/DX   Delta X   Delta X   Delta X     New X
                                 (Linear)    (Quad)   (Total)
    R1        2.74395  -0.00052   0.00000  -0.00136  -0.00136   2.74258
    R2        2.74395  -0.00052   0.00000  -0.00136  -0.00136   2.74258
    R3        2.74395  -0.00052   0.00000  -0.00136  -0.00136   2.74258
    R4        2.09463  -0.00232   0.00000  -0.00707  -0.00707   2.08756
    R5        2.06896  -0.00289   0.00000  -0.00843  -0.00843   2.06053
    R6        2.06896  -0.00289   0.00000  -0.00843  -0.00843   2.06053
    R7        2.09463  -0.00232   0.00000  -0.00707  -0.00707   2.08756
    R8        2.06896  -0.00289   0.00000  -0.00843  -0.00843   2.06053
    R9        2.06896  -0.00289   0.00000  -0.00843  -0.00843   2.06053
   R10        2.09463  -0.00232   0.00000  -0.00707  -0.00707   2.08756
   R11        2.06896  -0.00289   0.00000  -0.00843  -0.00843   2.06053
   R12        2.06896  -0.00289   0.00000  -0.00843  -0.00843   2.06053
    A1        1.95106   0.00003   0.00000   0.00094   0.00094   1.95200
    A2        1.95106   0.00003   0.00000   0.00094   0.00094   1.95200
    A3        1.95106   0.00003   0.00000   0.00094   0.00094   1.95200
    A4        1.97673  -0.00107   0.00000  -0.00692  -0.00692   1.96980
    A5        1.91731   0.00020   0.00000   0.00140   0.00140   1.91871
    A6        1.91731   0.00020   0.00000   0.00140   0.00140   1.91871
    A7        1.88167   0.00040   0.00000   0.00223   0.00223   1.88390
    A8        1.88167   0.00040   0.00000   0.00223   0.00223   1.88390
    A9        1.88662  -0.00010   0.00000  -0.00008  -0.00008   1.88654
   A10        1.97673  -0.00107   0.00000  -0.00692  -0.00692   1.96980
   A11        1.91731   0.00020   0.00000   0.00140   0.00140   1.91871
   A12        1.91731   0.00020   0.00000   0.00140   0.00140   1.91871
   A13        1.88167   0.00040   0.00000   0.00223   0.00223   1.88390
   A14        1.88167   0.00040   0.00000   0.00223   0.00223   1.88390
   A15        1.88662  -0.00010   0.00000  -0.00008  -0.00008   1.88654
   A16        1.97673  -0.00107   0.00000  -0.00692  -0.00692   1.96980
   A17        1.91731   0.00020   0.00000   0.00140   0.00140   1.91871
   A18        1.91731   0.00020   0.00000   0.00140   0.00140   1.91871
   A19        1.88167   0.00040   0.00000   0.00223   0.00223   1.88390
   A20        1.88167   0.00040   0.00000   0.00223   0.00223   1.88390
   A21        1.88662  -0.00010   0.00000  -0.00008  -0.00008   1.88654
    D1        1.10108   0.00004   0.00000   0.00137   0.00137   1.10245
    D2       -3.07708  -0.00002   0.00000   0.00056   0.00056  -3.07652
    D3       -1.00395   0.00010   0.00000   0.00217   0.00217  -1.00177
    D4       -1.10108  -0.00004   0.00000  -0.00137  -0.00137  -1.10245
    D5        1.00395  -0.00010   0.00000  -0.00217  -0.00217   1.00177
    D6        3.07708   0.00002   0.00000  -0.00056  -0.00056   3.07652
    D7       -1.10108  -0.00004   0.00000  -0.00137  -0.00137  -1.10245
    D8        1.00395  -0.00010   0.00000  -0.00217  -0.00217   1.00177
    D9        3.07708   0.00002   0.00000  -0.00056  -0.00056   3.07652
   D10        1.10108   0.00004   0.00000   0.00137   0.00137   1.10245
   D11       -3.07708  -0.00002   0.00000   0.00056   0.00056  -3.07652
   D12       -1.00395   0.00010   0.00000   0.00217   0.00217  -1.00177
   D13        1.10108   0.00004   0.00000   0.00137   0.00137   1.10245
   D14       -3.07708  -0.00002   0.00000   0.00056   0.00056  -3.07652
   D15       -1.00395   0.00010   0.00000   0.00217   0.00217  -1.00177
   D16       -1.10108  -0.00004   0.00000  -0.00137  -0.00137  -1.10245
   D17        1.00395  -0.00010   0.00000  -0.00217  -0.00217   1.00177
   D18        3.07708   0.00002   0.00000  -0.00056  -0.00056   3.07652
         Item               Value     Threshold  Converged?
 Maximum Force            0.002890     0.000450     NO 
 RMS     Force            0.001186     0.000300     NO 
 Maximum Displacement     0.013458     0.001800     NO 
 RMS     Displacement     0.004657     0.001200     NO 
 Predicted change in Energy=-1.142332D-04
 GradGradGradGradGradGradGradGradGradGradGradGradGradGradGradGradGradGrad

                          Input orientation:                          
 ---------------------------------------------------------------------
 Center     Atomic      Atomic             Coordinates (Angstroms)
 Number     Number       Type             X           Y           Z
 ---------------------------------------------------------------------
      1          7           0        0.000000    0.000000    0.364821
      2          6           0        0.000000    1.388026   -0.059074
      3          6           0        1.202066   -0.694013   -0.059074
      4          6           0       -1.202066   -0.694013   -0.059074
      5          1           0        0.000000    1.501178   -1.157955
      6          1           0        1.300059   -0.750589   -1.157955
      7          1           0       -1.300059   -0.750589   -1.157955
      8          1           0       -0.882647    1.895805    0.330841
      9          1           0        0.882647    1.895805    0.330841
     10          1           0        2.083138   -0.183508    0.330841
     11          1           0        1.200492   -1.712297    0.330841
     12          1           0       -1.200492   -1.712297    0.330841
     13          1           0       -2.083138   -0.183508    0.330841
 ---------------------------------------------------------------------
                    Distance matrix (angstroms):
                    1          2          3          4          5
     1  N    0.000000
     2  C    1.451311   0.000000
     3  C    1.451311   2.404132   0.000000
     4  C    1.451311   2.404132   2.404132   0.000000
     5  H    2.138313   1.104690   2.733380   2.733380   0.000000
     6  H    2.138313   2.733380   1.104690   2.733380   2.600117
     7  H    2.138313   2.733380   2.733380   1.104690   2.600117
     8  H    2.091482   1.090385   3.347419   2.638412   1.775193
     9  H    2.091482   1.090385   2.638412   3.347419   1.775193
    10  H    2.091482   2.638412   1.090385   3.347419   3.064987
    11  H    2.091482   3.347419   1.090385   2.638412   3.739534
    12  H    2.091482   3.347419   2.638412   1.090385   3.739534
    13  H    2.091482   2.638412   3.347419   1.090385   3.064987
                    6          7          8          9         10
     6  H    0.000000
     7  H    2.600117   0.000000
     8  H    3.739534   3.064987   0.000000
     9  H    3.064987   3.739534   1.765293   0.000000
    10  H    1.775193   3.739534   3.622074   2.400984   0.000000
    11  H    1.775193   3.064987   4.166277   3.622074   1.765293
    12  H    3.064987   1.775193   3.622074   4.166277   3.622074
    13  H    3.739534   1.775193   2.400984   3.622074   4.166277
                   11         12         13
    11  H    0.000000
    12  H    2.400984   0.000000
    13  H    3.622074   1.765293   0.000000
 Stoichiometry    C3H9N
 Framework group  C3V[C3(N),3SGV(CH),X(H6)]
 Deg. of freedom     7
 Full point group                 C3V     NOp   6
 Largest Abelian subgroup         CS      NOp   2
 Largest concise Abelian subgroup CS      NOp   2
                         Standard orientation:                         
 ---------------------------------------------------------------------
 Center     Atomic      Atomic             Coordinates (Angstroms)
 Number     Number       Type             X           Y           Z
 ---------------------------------------------------------------------
      1          7           0        0.000000    0.000000    0.364774
      2          6           0        0.000000    1.388026   -0.059121
      3          6           0        1.202066   -0.694013   -0.059121
      4          6           0       -1.202066   -0.694013   -0.059121
      5          1           0        0.000000    1.501178   -1.158001
      6          1           0        1.300059   -0.750589   -1.158001
      7          1           0       -1.300059   -0.750589   -1.158001
      8          1           0       -0.882647    1.895805    0.330795
      9          1           0        0.882647    1.895805    0.330795
     10          1           0        2.083138   -0.183508    0.330795
     11          1           0        1.200492   -1.712297    0.330795
     12          1           0       -1.200492   -1.712297    0.330795
     13          1           0       -2.083138   -0.183508    0.330795
 ---------------------------------------------------------------------
 Rotational constants (GHZ):           8.7170276           8.7170276           4.9249594
 Basis read from rwf:  (5D, 7F)
 There are   154 symmetry adapted cartesian basis functions of A'  symmetry.
 There are   121 symmetry adapted cartesian basis functions of A"  symmetry.
 There are   136 symmetry adapted basis functions of A'  symmetry.
 There are   110 symmetry adapted basis functions of A"  symmetry.
   246 basis functions,   366 primitive gaussians,   275 cartesian basis functions
    17 alpha electrons       17 beta electrons
       nuclear repulsion energy       138.6147673856 Hartrees.
 NAtoms=   13 NActive=   13 NUniq=    4 SFac= 4.00D+00 NAtFMM=   60 NAOKFM=F Big=F
 Integral buffers will be    131072 words long.
 Raffenetti 2 integral format.
 Two-electron integral symmetry is turned on.
 One-electron integrals computed using PRISM.
 NBasis=   246 RedAO= T EigKep=  8.01D-04  NBF=   136   110
 NBsUse=   246 1.00D-06 EigRej= -1.00D+00 NBFU=   136   110
 Initial guess from the checkpoint file:  "/wrk/irikura/Gau-30395.chk"
 B after Tr=     0.000000   -0.000000   -0.000000
         Rot=    1.000000    0.000000    0.000000    0.000000 Ang=   0.00 deg.
 Initial guess orbital symmetries:
       Occupied  (A1) (E) (E) (A1) (A1) (E) (E) (A1) (E) (E) (A1)
                 (E) (E) (A2) (E) (E) (A1)
       Virtual   (A1) (E) (E) (A1) (E) (E) (A1) (E) (E) (A2) (E)
                 (E) (A1) (E) (E) (E) (E) (E) (E) (A2) (A1) (A1)
                 (A1) (E) (E) (E) (E) (A2) (A1) (E) (E) (A1) (E)
                 (E) (E) (E) (A1) (E) (E) (A1) (E) (E) (A2) (E)
                 (E) (E) (E) (A1) (A2) (E) (E) (E) (E) (A2) (A1)
                 (E) (E) (A2) (E) (E) (A1) (A1) (E) (E) (E) (E)
                 (A1) (E) (E) (A1) (A1) (E) (E) (E) (E) (E) (E)
                 (A1) (A2) (A2) (E) (E) (E) (E) (A2) (A1) (E) (E)
                 (A1) (E) (E) (E) (E) (A1) (A1) (E) (E) (E) (E)
                 (A1) (A2) (E) (E) (E) (E) (A1) (E) (E) (E) (E)
                 (A1) (A2) (E) (E) (A1) (A2) (E) (E) (E) (E) (A1)
                 (A2) (E) (E) (A1) (E) (E) (A2) (A1) (E) (E) (E)
                 (E) (E) (E) (A2) (E) (E) (A1) (E) (E) (A2) (A1)
                 (E) (E) (A2) (E) (E) (A1) (E) (E) (E) (E) (A1)
                 (E) (E) (A1) (A2) (E) (E) (E) (E) (A1) (A2) (E)
                 (E) (E) (E) (A2) (E) (E) (E) (E) (A1) (E) (E)
                 (A1) (A1) (A2) (E) (E) (A1) (E) (E) (A1) (E) (E)
                 (A2) (A1) (E) (E) (E) (E) (E) (E) (A1) (A2) (E)
                 (E) (E) (E) (A1) (A2) (A2) (E) (E) (A1) (E) (E)
                 (E) (E) (E) (E) (E) (E) (A1) (A2) (A1) (E) (E)
                 (E) (E) (A1) (E) (E) (A2) (E) (E) (A1)
 Keep R1 ints in memory in symmetry-blocked form, NReq=692402913.
 Requested convergence on RMS density matrix=1.00D-08 within 128 cycles.
 Requested convergence on MAX density matrix=1.00D-06.
 Requested convergence on             energy=1.00D-06.
 No special actions if energy rises.
 SCF Done:  E(RB3LYP) =  -174.548277404     A.U. after    8 cycles
            NFock=  8  Conv=0.36D-08     -V/T= 2.0045
 Calling FoFJK, ICntrl=      2127 FMM=F ISym2X=1 I1Cent= 0 IOpClX= 0 NMat=1 NMatS=1 NMatT=0.
 ***** Axes restored to original set *****
 -------------------------------------------------------------------
 Center     Atomic                   Forces (Hartrees/Bohr)
 Number     Number              X              Y              Z
 -------------------------------------------------------------------
      1        7          -0.000000000   -0.000000000    0.000365817
      2        6           0.000000000    0.000343187   -0.000177455
      3        6           0.000297209   -0.000171594   -0.000177455
      4        6          -0.000297209   -0.000171594   -0.000177455
      5        1           0.000000000   -0.000039851    0.000008483
      6        1          -0.000034512    0.000019925    0.000008483
      7        1           0.000034512    0.000019925    0.000008483
      8        1           0.000067871   -0.000088404    0.000023517
      9        1          -0.000067871   -0.000088404    0.000023517
     10        1          -0.000110496   -0.000014576    0.000023517
     11        1          -0.000042625    0.000102980    0.000023517
     12        1           0.000042625    0.000102980    0.000023517
     13        1           0.000110496   -0.000014576    0.000023517
 -------------------------------------------------------------------
 Cartesian Forces:  Max     0.000365817 RMS     0.000130527

 GradGradGradGradGradGradGradGradGradGradGradGradGradGradGradGradGradGrad
 Berny optimization.
 Using GEDIIS/GDIIS optimizer.
 FormGI is forming the generalized inverse of G from B-inverse, IUseBI=4.
 Internal  Forces:  Max     0.000156626 RMS     0.000062285
 Search for a local minimum.
 Step number   2 out of a maximum of   61
 All quantities printed in internal units (Hartrees-Bohrs-Radians)
 Mixed Optimization -- En-DIIS/RFO-DIIS
 Update second derivatives using D2CorX and points    1    2
 DE= -1.17D-04 DEPred=-1.14D-04 R= 1.02D+00
 TightC=F SS=  1.41D+00  RLast= 2.85D-02 DXNew= 5.0454D-01 8.5465D-02
 Trust test= 1.02D+00 RLast= 2.85D-02 DXMaxT set to 3.00D-01
 ITU=  1  0
 Use linear search instead of GDIIS.
     Eigenvalues ---    0.01003   0.01003   0.01003   0.02751   0.07214
     Eigenvalues ---    0.07214   0.07214   0.07558   0.07558   0.07582
     Eigenvalues ---    0.15722   0.16000   0.16000   0.16000   0.16000
     Eigenvalues ---    0.16000   0.16000   0.16000   0.16207   0.17604
     Eigenvalues ---    0.17604   0.32657   0.32767   0.32767   0.33368
     Eigenvalues ---    0.34259   0.34259   0.34259   0.34259   0.34259
     Eigenvalues ---    0.37980   0.37980   0.38406
 RFO step:  Lambda=-9.77563172D-07 EMin= 1.00348125D-02
 Quartic linear search produced a step of  0.01730.
 Iteration  1 RMS(Cart)=  0.00032859 RMS(Int)=  0.00000022
 Iteration  2 RMS(Cart)=  0.00000021 RMS(Int)=  0.00000014
 ClnCor:  largest displacement from symmetrization is 5.17D-12 for atom     7.
 Variable       Old X    -DE/DX   Delta X   Delta X   Delta X     New X
                                 (Linear)    (Quad)   (Total)
    R1        2.74258   0.00016  -0.00002   0.00044   0.00041   2.74299
    R2        2.74258   0.00016  -0.00002   0.00044   0.00041   2.74299
    R3        2.74258   0.00016  -0.00002   0.00044   0.00041   2.74299
    R4        2.08756  -0.00001  -0.00012   0.00005  -0.00007   2.08749
    R5        2.06053  -0.00009  -0.00015  -0.00015  -0.00030   2.06023
    R6        2.06053  -0.00009  -0.00015  -0.00015  -0.00030   2.06023
    R7        2.08756  -0.00001  -0.00012   0.00005  -0.00007   2.08749
    R8        2.06053  -0.00009  -0.00015  -0.00015  -0.00030   2.06023
    R9        2.06053  -0.00009  -0.00015  -0.00015  -0.00030   2.06023
   R10        2.08756  -0.00001  -0.00012   0.00005  -0.00007   2.08749
   R11        2.06053  -0.00009  -0.00015  -0.00015  -0.00030   2.06023
   R12        2.06053  -0.00009  -0.00015  -0.00015  -0.00030   2.06023
    A1        1.95200  -0.00001   0.00002  -0.00038  -0.00037   1.95163
    A2        1.95200  -0.00001   0.00002  -0.00038  -0.00037   1.95163
    A3        1.95200  -0.00001   0.00002  -0.00038  -0.00037   1.95163
    A4        1.96980  -0.00001  -0.00012   0.00012  -0.00000   1.96980
    A5        1.91871  -0.00008   0.00002  -0.00056  -0.00054   1.91817
    A6        1.91871  -0.00008   0.00002  -0.00056  -0.00054   1.91817
    A7        1.88390   0.00007   0.00004   0.00049   0.00052   1.88443
    A8        1.88390   0.00007   0.00004   0.00049   0.00052   1.88443
    A9        1.88654   0.00004  -0.00000   0.00006   0.00006   1.88660
   A10        1.96980  -0.00001  -0.00012   0.00012  -0.00000   1.96980
   A11        1.91871  -0.00008   0.00002  -0.00056  -0.00054   1.91817
   A12        1.91871  -0.00008   0.00002  -0.00056  -0.00054   1.91817
   A13        1.88390   0.00007   0.00004   0.00049   0.00052   1.88443
   A14        1.88390   0.00007   0.00004   0.00049   0.00052   1.88443
   A15        1.88654   0.00004  -0.00000   0.00006   0.00006   1.88660
   A16        1.96980  -0.00001  -0.00012   0.00012  -0.00000   1.96980
   A17        1.91871  -0.00008   0.00002  -0.00056  -0.00054   1.91817
   A18        1.91871  -0.00008   0.00002  -0.00056  -0.00054   1.91817
   A19        1.88390   0.00007   0.00004   0.00049   0.00052   1.88443
   A20        1.88390   0.00007   0.00004   0.00049   0.00052   1.88443
   A21        1.88654   0.00004  -0.00000   0.00006   0.00006   1.88660
    D1        1.10245  -0.00001   0.00002  -0.00056  -0.00054   1.10191
    D2       -3.07652   0.00001   0.00001  -0.00025  -0.00025  -3.07677
    D3       -1.00177  -0.00004   0.00004  -0.00087  -0.00083  -1.00260
    D4       -1.10245   0.00001  -0.00002   0.00056   0.00054  -1.10191
    D5        1.00177   0.00004  -0.00004   0.00087   0.00083   1.00260
    D6        3.07652  -0.00001  -0.00001   0.00025   0.00025   3.07677
    D7       -1.10245   0.00001  -0.00002   0.00056   0.00054  -1.10191
    D8        1.00177   0.00004  -0.00004   0.00087   0.00083   1.00260
    D9        3.07652  -0.00001  -0.00001   0.00025   0.00025   3.07677
   D10        1.10245  -0.00001   0.00002  -0.00056  -0.00054   1.10191
   D11       -3.07652   0.00001   0.00001  -0.00025  -0.00025  -3.07677
   D12       -1.00177  -0.00004   0.00004  -0.00087  -0.00083  -1.00260
   D13        1.10245  -0.00001   0.00002  -0.00056  -0.00054   1.10191
   D14       -3.07652   0.00001   0.00001  -0.00025  -0.00025  -3.07677
   D15       -1.00177  -0.00004   0.00004  -0.00087  -0.00083  -1.00260
   D16       -1.10245   0.00001  -0.00002   0.00056   0.00054  -1.10191
   D17        1.00177   0.00004  -0.00004   0.00087   0.00083   1.00260
   D18        3.07652  -0.00001  -0.00001   0.00025   0.00025   3.07677
         Item               Value     Threshold  Converged?
 Maximum Force            0.000157     0.000450     YES
 RMS     Force            0.000062     0.000300     YES
 Maximum Displacement     0.000891     0.001800     YES
 RMS     Displacement     0.000329     0.001200     YES
 Predicted change in Energy=-5.222139D-07
 Optimization completed.
    -- Stationary point found.
                           ----------------------------
                           !   Optimized Parameters   !
                           ! (Angstroms and Degrees)  !
 --------------------------                            --------------------------
 ! Name  Definition              Value          Derivative Info.                !
 --------------------------------------------------------------------------------
 ! R1    R(1,2)                  1.4513         -DE/DX =    0.0002              !
 ! R2    R(1,3)                  1.4513         -DE/DX =    0.0002              !
 ! R3    R(1,4)                  1.4513         -DE/DX =    0.0002              !
 ! R4    R(2,5)                  1.1047         -DE/DX =    0.0                 !
 ! R5    R(2,8)                  1.0904         -DE/DX =   -0.0001              !
 ! R6    R(2,9)                  1.0904         -DE/DX =   -0.0001              !
 ! R7    R(3,6)                  1.1047         -DE/DX =    0.0                 !
 ! R8    R(3,10)                 1.0904         -DE/DX =   -0.0001              !
 ! R9    R(3,11)                 1.0904         -DE/DX =   -0.0001              !
 ! R10   R(4,7)                  1.1047         -DE/DX =    0.0                 !
 ! R11   R(4,12)                 1.0904         -DE/DX =   -0.0001              !
 ! R12   R(4,13)                 1.0904         -DE/DX =   -0.0001              !
 ! A1    A(2,1,3)              111.8413         -DE/DX =    0.0                 !
 ! A2    A(2,1,4)              111.8413         -DE/DX =    0.0                 !
 ! A3    A(3,1,4)              111.8413         -DE/DX =    0.0                 !
 ! A4    A(1,2,5)              112.8614         -DE/DX =    0.0                 !
 ! A5    A(1,2,8)              109.9339         -DE/DX =   -0.0001              !
 ! A6    A(1,2,9)              109.9339         -DE/DX =   -0.0001              !
 ! A7    A(5,2,8)              107.9396         -DE/DX =    0.0001              !
 ! A8    A(5,2,9)              107.9396         -DE/DX =    0.0001              !
 ! A9    A(8,2,9)              108.0907         -DE/DX =    0.0                 !
 ! A10   A(1,3,6)              112.8614         -DE/DX =    0.0                 !
 ! A11   A(1,3,10)             109.9339         -DE/DX =   -0.0001              !
 ! A12   A(1,3,11)             109.9339         -DE/DX =   -0.0001              !
 ! A13   A(6,3,10)             107.9396         -DE/DX =    0.0001              !
 ! A14   A(6,3,11)             107.9396         -DE/DX =    0.0001              !
 ! A15   A(10,3,11)            108.0907         -DE/DX =    0.0                 !
 ! A16   A(1,4,7)              112.8614         -DE/DX =    0.0                 !
 ! A17   A(1,4,12)             109.9339         -DE/DX =   -0.0001              !
 ! A18   A(1,4,13)             109.9339         -DE/DX =   -0.0001              !
 ! A19   A(7,4,12)             107.9396         -DE/DX =    0.0001              !
 ! A20   A(7,4,13)             107.9396         -DE/DX =    0.0001              !
 ! A21   A(12,4,13)            108.0907         -DE/DX =    0.0                 !
 ! D1    D(3,1,2,5)             63.1655         -DE/DX =    0.0                 !
 ! D2    D(3,1,2,8)           -176.2716         -DE/DX =    0.0                 !
 ! D3    D(3,1,2,9)            -57.3974         -DE/DX =    0.0                 !
 ! D4    D(4,1,2,5)            -63.1655         -DE/DX =    0.0                 !
 ! D5    D(4,1,2,8)             57.3974         -DE/DX =    0.0                 !
 ! D6    D(4,1,2,9)            176.2716         -DE/DX =    0.0                 !
 ! D7    D(2,1,3,6)            -63.1655         -DE/DX =    0.0                 !
 ! D8    D(2,1,3,10)            57.3974         -DE/DX =    0.0                 !
 ! D9    D(2,1,3,11)           176.2716         -DE/DX =    0.0                 !
 ! D10   D(4,1,3,6)             63.1655         -DE/DX =    0.0                 !
 ! D11   D(4,1,3,10)          -176.2716         -DE/DX =    0.0                 !
 ! D12   D(4,1,3,11)           -57.3974         -DE/DX =    0.0                 !
 ! D13   D(2,1,4,7)             63.1655         -DE/DX =    0.0                 !
 ! D14   D(2,1,4,12)          -176.2716         -DE/DX =    0.0                 !
 ! D15   D(2,1,4,13)           -57.3974         -DE/DX =    0.0                 !
 ! D16   D(3,1,4,7)            -63.1655         -DE/DX =    0.0                 !
 ! D17   D(3,1,4,12)            57.3974         -DE/DX =    0.0                 !
 ! D18   D(3,1,4,13)           176.2716         -DE/DX =    0.0                 !
 --------------------------------------------------------------------------------
 GradGradGradGradGradGradGradGradGradGradGradGradGradGradGradGradGradGrad

                          Input orientation:                          
 ---------------------------------------------------------------------
 Center     Atomic      Atomic             Coordinates (Angstroms)
 Number     Number       Type             X           Y           Z
 ---------------------------------------------------------------------
      1          7           0       -0.000000    0.000000    0.364821
      2          6           0       -0.000000    1.388026   -0.059074
      3          6           0        1.202066   -0.694013   -0.059074
      4          6           0       -1.202066   -0.694013   -0.059074
      5          1           0       -0.000000    1.501178   -1.157955
      6          1           0        1.300059   -0.750589   -1.157955
      7          1           0       -1.300059   -0.750589   -1.157955
      8          1           0       -0.882647    1.895805    0.330841
      9          1           0        0.882647    1.895805    0.330841
     10          1           0        2.083138   -0.183508    0.330841
     11          1           0        1.200492   -1.712297    0.330841
     12          1           0       -1.200492   -1.712297    0.330841
     13          1           0       -2.083138   -0.183508    0.330841
 ---------------------------------------------------------------------
                    Distance matrix (angstroms):
                    1          2          3          4          5
     1  N    0.000000
     2  C    1.451311   0.000000
     3  C    1.451311   2.404132   0.000000
     4  C    1.451311   2.404132   2.404132   0.000000
     5  H    2.138313   1.104690   2.733380   2.733380   0.000000
     6  H    2.138313   2.733380   1.104690   2.733380   2.600117
     7  H    2.138313   2.733380   2.733380   1.104690   2.600117
     8  H    2.091482   1.090385   3.347419   2.638412   1.775193
     9  H    2.091482   1.090385   2.638412   3.347419   1.775193
    10  H    2.091482   2.638412   1.090385   3.347419   3.064987
    11  H    2.091482   3.347419   1.090385   2.638412   3.739534
    12  H    2.091482   3.347419   2.638412   1.090385   3.739534
    13  H    2.091482   2.638412   3.347419   1.090385   3.064987
                    6          7          8          9         10
     6  H    0.000000
     7  H    2.600117   0.000000
     8  H    3.739534   3.064987   0.000000
     9  H    3.064987   3.739534   1.765293   0.000000
    10  H    1.775193   3.739534   3.622074   2.400984   0.000000
    11  H    1.775193   3.064987   4.166277   3.622074   1.765293
    12  H    3.064987   1.775193   3.622074   4.166277   3.622074
    13  H    3.739534   1.775193   2.400984   3.622074   4.166277
                   11         12         13
    11  H    0.000000
    12  H    2.400984   0.000000
    13  H    3.622074   1.765293   0.000000
 Stoichiometry    C3H9N
 Framework group  C3V[C3(N),3SGV(CH),X(H6)]
 Deg. of freedom     7
 Full point group                 C3V     NOp   6
 Largest Abelian subgroup         CS      NOp   2
 Largest concise Abelian subgroup CS      NOp   2
                         Standard orientation:                         
 ---------------------------------------------------------------------
 Center     Atomic      Atomic             Coordinates (Angstroms)
 Number     Number       Type             X           Y           Z
 ---------------------------------------------------------------------
      1          7           0        0.000000    0.000000    0.364774
      2          6           0        0.000000    1.388026   -0.059121
      3          6           0        1.202066   -0.694013   -0.059121
      4          6           0       -1.202066   -0.694013   -0.059121
      5          1           0        0.000000    1.501178   -1.158001
      6          1           0        1.300059   -0.750589   -1.158001
      7          1           0       -1.300059   -0.750589   -1.158001
      8          1           0       -0.882647    1.895805    0.330795
      9          1           0        0.882647    1.895805    0.330795
     10          1           0        2.083138   -0.183508    0.330795
     11          1           0        1.200492   -1.712297    0.330795
     12          1           0       -1.200492   -1.712297    0.330795
     13          1           0       -2.083138   -0.183508    0.330795
 ---------------------------------------------------------------------
 Rotational constants (GHZ):           8.7170276           8.7170276           4.9249594

 **********************************************************************

            Population analysis using the SCF Density.

 **********************************************************************

 Orbital symmetries:
       Occupied  (A1) (E) (E) (A1) (A1) (E) (E) (A1) (E) (E) (A1)
                 (E) (E) (A2) (E) (E) (A1)
       Virtual   (A1) (E) (E) (A1) (E) (E) (A1) (E) (E) (A2) (E)
                 (E) (A1) (E) (E) (E) (E) (E) (E) (A2) (A1) (A1)
                 (A1) (E) (E) (E) (E) (A2) (A1) (E) (E) (A1) (E)
                 (E) (E) (E) (A1) (E) (E) (A1) (E) (E) (A2) (E)
                 (E) (E) (E) (A1) (A2) (E) (E) (E) (E) (A2) (A1)
                 (E) (E) (A2) (E) (E) (A1) (A1) (E) (E) (E) (E)
                 (A1) (E) (E) (A1) (A1) (E) (E) (E) (E) (E) (E)
                 (A1) (A2) (A2) (E) (E) (E) (E) (A2) (A1) (E) (E)
                 (A1) (E) (E) (E) (E) (A1) (A1) (E) (E) (E) (E)
                 (A2) (A1) (E) (E) (E) (E) (A1) (E) (E) (E) (E)
                 (A1) (A2) (E) (E) (A1) (A2) (E) (E) (E) (E) (A1)
                 (A2) (E) (E) (A1) (E) (E) (A2) (A1) (E) (E) (E)
                 (E) (E) (E) (A2) (E) (E) (A1) (E) (E) (A2) (A1)
                 (E) (E) (A2) (E) (E) (E) (E) (A1) (E) (E) (A1)
                 (E) (E) (A2) (A1) (E) (E) (E) (E) (A1) (A2) (E)
                 (E) (E) (E) (A2) (E) (E) (E) (E) (A1) (E) (E)
                 (A1) (A1) (A2) (E) (E) (A1) (E) (E) (A1) (E) (E)
                 (A2) (A1) (E) (E) (E) (E) (E) (E) (A1) (A2) (E)
                 (E) (E) (E) (A1) (A2) (A2) (E) (E) (A1) (E) (E)
                 (E) (E) (E) (E) (E) (E) (A1) (A2) (A1) (E) (E)
                 (E) (E) (A1) (E) (E) (A2) (E) (E) (A1)
 The electronic state is 1-A1.
 Alpha  occ. eigenvalues --  -14.30549 -10.18601 -10.18601 -10.18601  -0.92198
 Alpha  occ. eigenvalues --   -0.70620  -0.70620  -0.59230  -0.46932  -0.46932
 Alpha  occ. eigenvalues --   -0.46751  -0.39490  -0.39490  -0.37154  -0.36467
 Alpha  occ. eigenvalues --   -0.36467  -0.21784
 Alpha virt. eigenvalues --    0.01139   0.04780   0.04780   0.06523   0.07299
 Alpha virt. eigenvalues --    0.07299   0.08505   0.10958   0.10958   0.13404
 Alpha virt. eigenvalues --    0.16155   0.16155   0.16381   0.18361   0.18361
 Alpha virt. eigenvalues --    0.27133   0.27133   0.28401   0.28401   0.30425
 Alpha virt. eigenvalues --    0.31424   0.32905   0.34615   0.35326   0.35326
 Alpha virt. eigenvalues --    0.36090   0.36090   0.37475   0.38598   0.38808
 Alpha virt. eigenvalues --    0.38808   0.46461   0.47690   0.47690   0.54456
 Alpha virt. eigenvalues --    0.54456   0.58617   0.74065   0.74065   0.78623
 Alpha virt. eigenvalues --    0.82466   0.82466   0.85393   0.90033   0.90033
 Alpha virt. eigenvalues --    0.92974   0.92974   0.93242   0.98433   1.00341
 Alpha virt. eigenvalues --    1.00341   1.05249   1.05249   1.05646   1.06113
 Alpha virt. eigenvalues --    1.08362   1.08362   1.08423   1.12447   1.12447
 Alpha virt. eigenvalues --    1.15136   1.21005   1.23532   1.23532   1.27950
 Alpha virt. eigenvalues --    1.27950   1.29001   1.34922   1.34922   1.37315
 Alpha virt. eigenvalues --    1.47233   1.48204   1.48204   1.55181   1.55181
 Alpha virt. eigenvalues --    1.58825   1.58825   1.64243   1.66954   1.71806
 Alpha virt. eigenvalues --    1.76022   1.76022   1.80698   1.80698   1.85550
 Alpha virt. eigenvalues --    1.87506   1.88354   1.88354   1.90497   1.97192
 Alpha virt. eigenvalues --    1.97192   2.12825   2.12825   2.22141   2.25344
 Alpha virt. eigenvalues --    2.27029   2.27029   2.50398   2.50398   2.53933
 Alpha virt. eigenvalues --    2.54538   2.54744   2.54744   2.61498   2.61498
 Alpha virt. eigenvalues --    2.62768   2.99514   2.99514   3.18748   3.18748
 Alpha virt. eigenvalues --    3.23565   3.25103   3.27931   3.27931   3.28266
 Alpha virt. eigenvalues --    3.28925   3.34683   3.34683   3.43475   3.43475
 Alpha virt. eigenvalues --    3.43652   3.49898   3.50557   3.50557   3.64271
 Alpha virt. eigenvalues --    3.68416   3.68416   3.77636   3.78296   3.79095
 Alpha virt. eigenvalues --    3.79095   3.81531   3.81531   3.85819   3.85819
[...]
                           ! (Angstroms and Degrees)  !
 --------------------------                            --------------------------
 ! Name  Definition              Value          Derivative Info.                !
 --------------------------------------------------------------------------------
 ! R1    R(1,2)                  1.4518         -DE/DX =    0.0002              !
 ! R2    R(1,3)                  1.4518         -DE/DX =    0.0002              !
 ! R3    R(1,4)                  1.4518         -DE/DX =    0.0002              !
 ! R4    R(2,5)                  1.1046         -DE/DX =    0.0                 !
 ! R5    R(2,8)                  1.0902         -DE/DX =   -0.0001              !
 ! R6    R(2,9)                  1.0902         -DE/DX =   -0.0001              !
 ! R7    R(3,6)                  1.1046         -DE/DX =    0.0                 !
 ! R8    R(3,10)                 1.0902         -DE/DX =   -0.0001              !
 ! R9    R(3,11)                 1.0902         -DE/DX =   -0.0001              !
 ! R10   R(4,7)                  1.1046         -DE/DX =    0.0                 !
 ! R11   R(4,12)                 1.0902         -DE/DX =   -0.0001              !
 ! R12   R(4,13)                 1.0902         -DE/DX =   -0.0001              !
 ! A1    A(2,1,3)              111.7987         -DE/DX =    0.0                 !
 ! A2    A(2,1,4)              111.7987         -DE/DX =    0.0                 !
 ! A3    A(3,1,4)              111.7987         -DE/DX =    0.0                 !
 ! A4    A(1,2,5)              112.8484         -DE/DX =    0.0                 !
 ! A5    A(1,2,8)              109.8961         -DE/DX =   -0.0001              !
 ! A6    A(1,2,9)              109.8961         -DE/DX =   -0.0001              !
 ! A7    A(5,2,8)              107.9821         -DE/DX =    0.0001              !
 ! A8    A(5,2,9)              107.9821         -DE/DX =    0.0001              !
 ! A9    A(8,2,9)              108.0977         -DE/DX =    0.0                 !
 ! A10   A(1,3,6)              112.8484         -DE/DX =    0.0                 !
 ! A11   A(1,3,10)             109.8961         -DE/DX =   -0.0001              !
 ! A12   A(1,3,11)             109.8961         -DE/DX =   -0.0001              !
 ! A13   A(6,3,10)             107.9821         -DE/DX =    0.0001              !
 ! A14   A(6,3,11)             107.9821         -DE/DX =    0.0001              !
 ! A15   A(10,3,11)            108.0977         -DE/DX =    0.0                 !
 ! A16   A(1,4,7)              112.8484         -DE/DX =    0.0                 !
 ! A17   A(1,4,12)             109.8961         -DE/DX =   -0.0001              !
 ! A18   A(1,4,13)             109.8961         -DE/DX =   -0.0001              !
 ! A19   A(7,4,12)             107.9821         -DE/DX =    0.0001              !
 ! A20   A(7,4,13)             107.9821         -DE/DX =    0.0001              !
 ! A21   A(12,4,13)            108.0977         -DE/DX =    0.0                 !
 ! D1    D(3,1,2,5)             63.1034         -DE/DX =    0.0                 !
 ! D2    D(3,1,2,8)           -176.3149         -DE/DX =    0.0                 !
 ! D3    D(3,1,2,9)            -57.4784         -DE/DX =    0.0                 !
 ! D4    D(4,1,2,5)            -63.1034         -DE/DX =    0.0                 !
 ! D5    D(4,1,2,8)             57.4784         -DE/DX =    0.0                 !
 ! D6    D(4,1,2,9)            176.3149         -DE/DX =    0.0                 !
 ! D7    D(2,1,3,6)            -63.1034         -DE/DX =    0.0                 !
 ! D8    D(2,1,3,10)            57.4784         -DE/DX =    0.0                 !
 ! D9    D(2,1,3,11)           176.3149         -DE/DX =    0.0                 !
 ! D10   D(4,1,3,6)             63.1034         -DE/DX =    0.0                 !
 ! D11   D(4,1,3,10)          -176.3149         -DE/DX =    0.0                 !
 ! D12   D(4,1,3,11)           -57.4784         -DE/DX =    0.0                 !
 ! D13   D(2,1,4,7)             63.1034         -DE/DX =    0.0                 !
 ! D14   D(2,1,4,12)          -176.3149         -DE/DX =    0.0                 !
 ! D15   D(2,1,4,13)           -57.4784         -DE/DX =    0.0                 !
 ! D16   D(3,1,4,7)            -63.1034         -DE/DX =    0.0                 !
 ! D17   D(3,1,4,12)            57.4784         -DE/DX =    0.0                 !
 ! D18   D(3,1,4,13)           176.3149         -DE/DX =    0.0                 !
 --------------------------------------------------------------------------------
 GradGradGradGradGradGradGradGradGradGradGradGradGradGradGradGradGradGrad


 ----------------------------------------------------------------------

 Electric dipole moment (input orientation):
 (Debye = 10**-18 statcoulomb cm , SI units = C m)
                  (au)            (Debye)         (10**-30 SI)
   Tot        0.191254D+00      0.486118D+00      0.162152D+01
   x          0.000000D+00      0.000000D+00      0.000000D+00
   y          0.000000D+00      0.000000D+00      0.000000D+00
   z         -0.191254D+00     -0.486118D+00     -0.162152D+01

 Dipole polarizability, Alpha (input orientation).
 (esu units = cm**3 , SI units = C**2 m**2 J**-1)
 Alpha(0;0):
               (au)            (10**-24 esu)      (10**-40 SI)
   iso        0.498285D+02      0.738382D+01      0.821561D+01
   aniso      0.520502D+01      0.771305D+00      0.858192D+00
   xx         0.515634D+02      0.764091D+01      0.850166D+01
   yx         0.000000D+00      0.000000D+00      0.000000D+00
   yy         0.515636D+02      0.764094D+01      0.850169D+01
   zx         0.000000D+00      0.000000D+00      0.000000D+00
   zy         0.600857D-04      0.890378D-05      0.990679D-05
   zz         0.463585D+02      0.686962D+01      0.764348D+01

 ----------------------------------------------------------------------

 Dipole orientation:
     7         -0.00000000         -0.00000011         -0.68941115
     6         -0.00000000         -2.62298939          0.11163438
     6          2.27157535          1.31149453          0.11163438
     6         -2.27157535          1.31149453          0.11163438
     1          0.00000000         -2.83681592          2.18821688
     1          2.45675456          1.41840780          2.18821688
     1         -2.45675456          1.41840780          2.18821688
     1         -1.66796028         -3.58255192         -0.62519981
     1          1.66796028         -3.58255192         -0.62519981
     1          3.93656101          0.34677981         -0.62519981
     1          2.26860073          3.23577177         -0.62519981
     1         -2.26860073          3.23577177         -0.62519981
     1         -3.93656101          0.34677981         -0.62519981

 Electric dipole moment (dipole orientation):
 (Debye = 10**-18 statcoulomb cm , SI units = C m)
                  (au)            (Debye)         (10**-30 SI)
   Tot        0.191254D+00      0.486118D+00      0.162152D+01
   x          0.000000D+00      0.000000D+00      0.000000D+00
   y          0.000000D+00      0.000000D+00      0.000000D+00
   z          0.191254D+00      0.486118D+00      0.162152D+01

 Dipole polarizability, Alpha (dipole orientation).
 (esu units = cm**3 , SI units = C**2 m**2 J**-1)
 Alpha(0;0):
               (au)            (10**-24 esu)      (10**-40 SI)
   iso        0.498285D+02      0.738382D+01      0.821561D+01
   aniso      0.520502D+01      0.771305D+00      0.858192D+00
   xx         0.515634D+02      0.764091D+01      0.850166D+01
   yx         0.000000D+00      0.000000D+00      0.000000D+00
   yy         0.515636D+02      0.764094D+01      0.850169D+01
   zx         0.000000D+00      0.000000D+00      0.000000D+00
   zy         0.600857D-04      0.890378D-05      0.990679D-05
   zz         0.463585D+02      0.686962D+01      0.764348D+01

 ----------------------------------------------------------------------
 1\1\GINC-GAMBA\Freq\RB3LYP\Gen\C3H9N1\IRIKURA\15-Jun-2022\0\\#N Geom=A
 llCheck Guess=TCheck SCRF=Check GenChk RB3LYP/ChkBas Freq\\trimethylam
 ine, B3LYP/pcseg-2\\0,1\N,0.,0.0000000588,0.3648206713\C,0.,1.38802621
 01,-0.0590743675\C,1.2020659081,-0.6940130168,-0.0590743675\C,-1.20206
 59081,-0.6940130168,-0.0590743675\H,0.,1.501178339,-1.1579545067\H,1.3
 000585263,-0.7505890813,-1.1579545067\H,-1.3000585263,-0.7505890813,-1
 .1579545067\H,-0.8826465711,1.8958048306,0.3308414919\H,0.8826465711,1
 .8958048306,0.3308414919\H,2.0831383785,-0.1835079739,0.3308414919\H,1
 .2004918074,-1.7122966802,0.3308414919\H,-1.2004918074,-1.7122966802,0
 .3308414919\H,-2.0831383785,-0.1835079739,0.3308414919\\Version=ES64L-
 G16RevB.01\State=1-A1\HF=-174.5482774\RMSD=3.293e-10\RMSF=1.305e-04\Ze
 roPoint=0.1197433\Thermal=0.1252116\Dipole=0.,0.,-0.1912536\DipoleDeri
 v=-0.6063738,0.,0.,0.,-0.6063796,0.0000019,0.,-0.0000099,-0.7399858,0.
 1105447,0.,0.,0.,0.5054516,-0.1042983,0.,-0.1232503,0.4643411,0.406733
 5,-0.1710085,-0.0903224,-0.1710052,0.2092711,0.052149,-0.1067326,0.061
 6289,0.4643321,0.4067335,0.1710085,0.0903224,0.1710052,0.2092711,0.052
 149,0.1067326,0.0616289,0.4643321,0.037858,0.,0.,0.,-0.0550255,-0.0510
 858,0.,0.1532376,-0.264391,-0.0318056,0.0402205,-0.0442412,0.0402197,0
 .0146374,0.0255429,0.132704,-0.0766177,-0.2643885,-0.0318056,-0.040220
 5,0.0442412,-0.0402197,0.0146374,0.0255429,-0.132704,-0.0766177,-0.264
 3885,-0.0798207,0.1249474,0.0637182,0.0577098,-0.0174732,-0.0119255,0.
 0728849,-0.0240507,0.0233587,-0.0798207,-0.1249474,-0.0637182,-0.05770
 98,-0.0174732,-0.0119255,-0.0728849,-0.0240507,0.0233587,-0.1121556,-0
 .0390406,-0.0421871,-0.1062797,0.0148615,-0.0492193,-0.0572727,-0.0510
 955,0.0233596,0.0460309,-0.0149506,0.0215307,0.0522899,-0.1433245,0.06
 11445,0.0156125,0.0751438,0.0233601,0.0460309,0.0149506,-0.0215307,-0.
 0522899,-0.1433245,0.0611445,-0.0156125,0.0751438,0.0233601,-0.1121556
 ,0.0390406,0.0421871,0.1062797,0.0148615,-0.0492193,0.0572727,-0.05109
 55,0.0233596\Polar=51.5634431,0.,51.5635866,0.,0.0000601,46.358494\Qua
 drupole=0.8837896,0.8837896,-1.7675791,0.,0.,0.\PG=C03V [C3(N1),3SGV(C
 1H1),X(H6)]\NImag=0\\0.53624713,0.,0.53624736,0.,-0.00000157,0.2344438
 5,-0.09783420,0.,0.,0.60935691,0.,-0.19816789,0.01691066,0.,0.49364423
 ,0.,0.06162222,-0.07322609,0.,0.04440967,0.51163153,-0.17308415,0.0434
 4562,0.01464454,-0.00333662,0.01239653,0.00310851,0.52257240,0.0434457
 8,-0.12291770,-0.00845505,0.03588771,-0.03121354,-0.01263827,0.0501050
 6,0.58042874,0.05336716,-0.03081133,-0.07322615,-0.00939080,0.00901118
 ,-0.00393403,0.03845991,-0.02220484,0.51163153,-0.17308415,-0.04344562
 ,-0.01464454,-0.00333662,-0.01239653,-0.00310851,-0.04515200,-0.011745
 59,-0.01249931,0.52257240,-0.04344578,-0.12291770,-0.00845505,-0.03588
 771,-0.03121354,-0.01263827,0.01174559,0.01060184,0.00362708,-0.050105
 06,0.58042874,-0.05336716,-0.03081133,-0.07322615,0.00939080,0.0090111
 8,-0.00393403,0.01249931,0.00362708,-0.00393403,-0.03845991,-0.0222048
 4,0.51163153,0.00106097,0.,0.,-0.05180919,0.,0.,0.00101959,-0.00055152
 ,-0.00239066,0.00101959,0.00055152,0.00239066,0.04692570,0.,-0.0182290
 4,0.03913352,0.,-0.05027159,0.00876744,-0.00401086,0.00308559,0.003816
 27,0.00401086,0.00308559,0.00381627,0.,0.05845762,0.,0.01730048,-0.012
 77323,0.,0.00612689,-0.26598658,0.00227064,-0.00154618,0.00150891,-0.0
 0227064,-0.00154618,0.00150891,0.,-0.02205339,0.29834107,-0.01340626,0
 .00835262,0.03389035,0.00059352,-0.00376487,0.00210966,-0.05065599,-0.
 00066580,0.00759282,0.00454466,0.00197566,0.00450032,0.00035322,-0.000
 05353,-0.00176279,0.05557464,0.00835253,-0.00376128,-0.01956654,-0.000
 30553,0.00351166,-0.00397851,-0.00066580,-0.05142479,-0.00438372,-0.00
 148368,-0.00043948,0.00016224,-0.00046345,0.00065170,0.00149461,-0.004
 99347,0.04980868,0.01498202,-0.00864988,-0.01277278,-0.00020372,0.0027
 3952,0.00150891,0.00530604,-0.00306344,-0.26598658,-0.00247435,-0.0011
 9334,0.00150891,0.00041297,-0.00227393,0.00079761,-0.01909880,0.011026
 70,0.29834107,-0.01340626,-0.00835262,-0.03389035,0.00059352,0.0037648
 7,-0.00210966,0.00454466,-0.00197566,-0.00450032,-0.05065599,0.0006658
 0,-0.00759282,0.00035322,0.00005353,0.00176279,0.00080094,0.00020496,0
 .00217576,0.05557464,-0.00835253,-0.00376128,-0.01956654,0.00030553,0.
 00351166,-0.00397851,0.00148368,-0.00043948,0.00016224,0.00066580,-0.0
 5142479,-0.00438372,0.00046345,0.00065170,0.00149461,-0.00020496,0.000
 20398,0.00077932,0.00499347,0.04980868,-0.01498202,-0.00864988,-0.0127
 7278,0.00020372,0.00273952,0.00150891,0.00247435,-0.00119334,0.0015089
 1,-0.00530604,-0.00306344,-0.26598658,-0.00041297,-0.00227393,0.000797
 61,-0.00217576,0.00077932,0.00079761,0.01909880,0.01102670,0.29834107,
 -0.00059996,0.00127076,-0.00219174,-0.22225798,0.09459987,0.07829312,0
 .00129989,-0.00002943,-0.00048485,0.00090875,-0.00150228,-0.00054468,0
 .00060754,-0.00087160,-0.00007033,0.00002721,-0.00006134,0.00018810,-0
 .00020932,0.00008156,0.00029930,0.23781731,0.02949671,-0.02156439,-0.0
 0903428,0.08748767,-0.09689529,-0.04038504,-0.00241511,-0.00614948,0.0
 0150004,0.00276577,0.00108012,-0.00060060,-0.00132228,0.00159134,-0.00
 075580,0.00004218,-0.00003939,-0.00026438,-0.00038249,-0.00015481,-0.0
 0016904,-0.10516295,0.11448134,-0.01100322,0.00588977,0.00392539,0.080
 95122,-0.04441709,-0.08428568,-0.00019046,0.00177256,0.00034330,0.0000
 6660,-0.00010343,0.00015808,0.02651864,-0.01362306,-0.01222504,-0.0003
 5979,0.00054897,0.00039924,0.00030609,-0.00001626,-0.00027137,-0.08585
 622,0.04319769,0.08667760,-0.00059996,-0.00127076,0.00219174,-0.222257
 98,-0.09459987,-0.07829312,0.00090875,0.00150228,0.00054468,0.00129989
 ,0.00002943,0.00048485,0.00060754,0.00087160,0.00007033,-0.00020932,-0
 .00008156,-0.00029930,0.00002721,0.00006134,-0.00018810,-0.01919486,-0
 .01112376,-0.01000746,0.23781731,-0.02949671,-0.02156439,-0.00903428,-
 0.08748767,-0.09689529,-0.04038504,-0.00276577,0.00108012,-0.00060060,
 0.00241511,-0.00614948,0.00150004,0.00132228,0.00159134,-0.00075580,0.
 00038249,-0.00015481,-0.00016904,-0.00004218,-0.00003939,-0.00026438,0
 .01112376,0.00768796,0.00639089,0.10516295,0.11448134,0.01100322,0.005
 88977,0.00392539,-0.08095122,-0.04441709,-0.08428568,-0.00006660,-0.00
 010343,0.00015808,0.00019046,0.00177256,0.00034330,-0.02651864,-0.0136
 2306,-0.01222504,-0.00030609,-0.00001626,-0.00027137,0.00035979,0.0005
 4897,0.00039924,0.01000746,0.00639089,0.00460347,0.08585622,0.04319769
 ,0.08667760,-0.02964595,-0.01272680,-0.00672827,0.00049016,-0.00252410
 ,-0.00024779,-0.20708218,-0.09624942,-0.07412103,-0.00322862,0.0050296
 5,0.00154150,-0.00003813,0.00028365,-0.00029604,0.00229537,0.00034782,
 -0.00061937,-0.00001444,-0.00001813,-0.00032301,0.00047133,0.00002300,
 0.00028757,0.00047950,0.00103993,0.00007003,0.23638912,0.01549905,0.00
 748162,0.00641524,0.00174395,0.00149870,0.00077201,-0.10336162,-0.1120
 7109,-0.04761131,0.00264397,-0.00162097,-0.00033013,-0.00018040,-0.000
 32600,-0.00017468,-0.00010287,-0.00009649,0.00043880,0.00008539,0.0000
 0226,-0.00003071,0.00006830,0.00041555,0.00007965,-0.00029812,0.000051
 21,-0.00021362,0.10598752,0.11590953,0.01060208,0.00658426,0.00392537,
 -0.00012287,-0.00000596,0.00015808,-0.07894194,-0.04789727,-0.08428568
 ,0.00163031,-0.00072133,0.00034330,-0.00016713,-0.00025695,-0.00027137
 ,-0.02505723,-0.01615428,-0.01222504,0.00065532,0.00003711,0.00039924,
 0.00019029,0.00025534,-0.00008010,-0.00014998,0.00016746,0.00027861,0.
 08033841,0.05275482,0.08667760,-0.00300091,0.03088279,-0.00891977,-0.0
 0534566,0.00142169,0.00105665,-0.04938975,-0.01231785,0.00417209,0.001
 58438,0.00237569,-0.00079248,-0.00003104,0.00007581,-0.00013491,0.0003
 9541,-0.00119981,-0.00068970,-0.00029874,-0.00033086,0.00000326,0.0001
 8131,0.00165577,-0.00032672,0.00046903,0.00002433,0.00031627,0.0009672
 6,-0.02276436,0.01053841,0.05424154,0.00265714,-0.01916370,0.00261894,
 0.00380737,0.00049606,-0.00116991,-0.00520566,-0.26976353,0.08799635,-
 0.00189235,0.00040448,-0.00017141,-0.00002771,0.00001886,0.00029509,-0
 .00074912,0.00180347,0.00031699,0.00013318,-0.00006538,0.00034372,0.00
 025481,-0.00092176,0.00045687,0.00006963,0.00041785,0.00003713,-0.0005
 1685,-0.01247416,0.00547127,0.00082457,0.29805711,-0.00040119,-0.01247
 379,0.00392546,0.00143985,-0.00105123,0.00034330,0.00200929,0.09231436
 ,-0.08428568,-0.00005628,0.00010939,0.00015808,0.00029553,-0.00058608,
 0.00039924,0.00146140,0.02977734,-0.01222504,0.00013896,0.00027321,-0.
 00027137,0.00023230,-0.00051138,0.00055662,0.00021277,0.00020922,-0.00
 008010,0.00053094,-0.01186216,0.00460347,-0.00551781,-0.09595251,0.086
 67760,-0.00300091,-0.03088279,0.00891977,-0.00534566,-0.00142169,-0.00
 105665,0.00158438,-0.00237569,0.00079248,-0.04938975,0.01231785,-0.004
 17209,-0.00003104,-0.00007581,0.00013491,-0.00029874,0.00033086,-0.000
 00326,0.00039541,0.00119981,0.00068970,0.00046903,-0.00002433,-0.00031
 627,0.00018131,-0.00165577,0.00032672,0.00038996,-0.00002132,-0.000074
 80,-0.00016293,0.00066903,-0.00022001,0.05424154,-0.00265714,-0.019163
 70,0.00261894,-0.00380737,0.00049606,-0.00116991,0.00189235,0.00040448
 ,-0.00017141,0.00520566,-0.26976353,0.08799635,0.00002771,0.00001886,0
 .00029509,-0.00013318,-0.00006538,0.00034372,0.00074912,0.00180347,0.0
 0031699,-0.00006963,0.00041785,0.00003713,-0.00025481,-0.00092176,0.00
 045687,0.00002398,0.00049692,-0.00028887,-0.00066903,0.00069364,0.0000
 4616,-0.00082457,0.29805711,0.00040119,-0.01247379,0.00392546,-0.00143
 985,-0.00105123,0.00034330,0.00005628,0.00010939,0.00015808,-0.0020092
 9,0.09231436,-0.08428568,-0.00029553,-0.00058608,0.00039924,-0.0001389
 6,0.00027321,-0.00027137,-0.00146140,0.02977734,-0.01222504,-0.0002127
 7,0.00020922,-0.00008010,-0.00023230,-0.00051138,0.00055662,0.00012598
 ,-0.00029247,-0.00008010,0.00022001,0.00004616,0.00027861,0.00551781,-
 0.09595251,0.08667760,-0.02964595,0.01272680,0.00672827,0.00049016,0.0
 0252410,0.00024779,-0.00322862,-0.00502965,-0.00154150,-0.20708218,0.0
 9624942,0.07412103,-0.00003813,-0.00028365,0.00029604,-0.00001444,0.00
 001813,0.00032301,0.00229536,-0.00034782,0.00061937,0.00047950,-0.0010
 3993,-0.00007003,0.00047133,-0.00002300,-0.00028757,-0.00147330,0.0007
 0048,0.00055902,0.00038996,-0.00002398,-0.00012598,0.00096726,0.000516
 85,-0.00053094,0.23638912,-0.01549905,0.00748162,0.00641524,-0.0017439
 5,0.00149870,0.00077201,-0.00264397,-0.00162097,-0.00033013,0.10336162
 ,-0.11207109,-0.04761131,0.00018040,-0.00032600,-0.00017469,-0.0000853
 9,0.00000226,-0.00003071,0.00010287,-0.00009649,0.00043880,0.00029812,
 0.00005121,-0.00021362,-0.00006830,0.00041555,0.00007965,-0.00070048,0
 .00073285,0.00005451,0.00002132,0.00049692,-0.00029247,0.02276436,-0.0
 1247416,-0.01186216,-0.10598752,0.11590953,-0.01060208,0.00658426,0.00
 392537,0.00012287,-0.00000596,0.00015808,-0.00163031,-0.00072133,0.000
 34330,0.07894194,-0.04789727,-0.08428568,0.00016713,-0.00025695,-0.000
 27137,-0.00065532,0.00003711,0.00039924,0.02505723,-0.01615428,-0.0122
 2504,0.00014998,0.00016746,0.00027861,-0.00019029,0.00025534,-0.000080
 10,-0.00055902,0.00005451,0.00055662,0.00007480,-0.00028887,-0.0000801
 0,-0.01053841,0.00547127,0.00460347,-0.08033841,0.05275482,0.08667760\
 \0.,0.,-0.00036583,0.,-0.00034318,0.00017747,-0.00029721,0.00017159,0.
 00017747,0.00029721,0.00017159,0.00017747,0.,0.00003985,-0.00000849,0.
 00003451,-0.00001993,-0.00000849,-0.00003451,-0.00001993,-0.00000849,-
 0.00006786,0.00008840,-0.00002352,0.00006786,0.00008840,-0.00002352,0.
 00011049,0.00001457,-0.00002352,0.00004262,-0.00010297,-0.00002352,-0.
 00004262,-0.00010297,-0.00002352,-0.00011049,0.00001457,-0.00002352\\\
 @


 THE WORLD IS NOT A HAMBURGER - YOU CAN'T HAVE IT YOUR WAY.
 Job cpu time:       0 days  0 hours 15 minutes 40.5 seconds.
 Elapsed time:       0 days  0 hours  1 minutes 18.9 seconds.
 File lengths (MBytes):  RWF=     37 Int=      0 D2E=      0 Chk=      6 Scr=      1
 Normal termination of Gaussian 16 at Wed Jun 15 16:39:27 2022.
