 Entering Gaussian System, Link 0=g16
 AtFile(1): pcseg2.gbs
            -H     0
            S   4   1.00
                  0.754732D+02           0.427821D-02
                  0.113575D+02           0.328672D-01
                  0.260081D+01           0.159578D+00
                  0.735503D+00           0.500000D+00
            S   1   1.00
                  0.231761D+00           1.0000000
            S   1   1.00
                  0.741675D-01           1.0000000
            P   1   1.00
                  0.160000D+01           1.0000000
            P   1   1.00
                  0.450000D+00           1.0000000
            D   1   1.00
                  0.125000D+01           1.0000000
            ****
            -C     0
            S   7   1.00
                  0.731999D+04           0.695369D-03
                  0.109818D+04           0.537138D-02
                  0.250014D+03           0.274734D-01
                  0.707586D+02           0.105078D+00
                  0.228595D+02           0.291262D+00
                  0.803936D+01           0.500000D+00
                  0.289309D+01           0.362224D+00
            S   2   1.00
                  0.521640D+01          -0.957844D-01
                  0.556124D+00           0.500000D+00
            S   1   1.00
                  0.228813D+00           1.0000000
            S   1   1.00
                  0.936338D-01           1.0000000
            P   4   1.00
                  0.339855D+02           0.818395D-02
                  0.772957D+01           0.586921D-01
                  0.224954D+01           0.222514D+00
                  0.767681D+00           0.500000D+00
            P   1   1.00
                  0.263283D+00           1.0000000
            P   1   1.00
                  0.848744D-01           1.0000000
            D   1   1.00
                  0.140000D+01           1.0000000
            D   1   1.00
                  0.450000D+00           1.0000000
            F   1   1.00
                  0.950000D+00           1.0000000
            ****
            -O     0
            S   7   1.00
                  0.135887D+05           0.665492D-03
                  0.203847D+04           0.514222D-02
                  0.464041D+03           0.263472D-01
                  0.131339D+03           0.101500D+00
                  0.425340D+02           0.285877D+00
                  0.150429D+02           0.500000D+00
                  0.546616D+01           0.368211D+00
            S   2   1.00
                  0.100915D+02          -0.100084D+00
                  0.110429D+01           0.500000D+00
            S   1   1.00
                  0.448082D+00           1.0000000
            S   1   1.00
                  0.175325D+00           1.0000000
            P   4   1.00
                  0.608220D+02           0.908253D-02
                  0.140332D+02           0.645878D-01
                  0.418244D+01           0.241502D+00
                  0.142490D+01           0.500000D+00
            P   1   1.00
                  0.478741D+00           1.0000000
            P   1   1.00
                  0.146257D+00           1.0000000
            D   1   1.00
                  0.220000D+01           1.0000000
            D   1   1.00
                  0.650000D+00           1.0000000
            F   1   1.00
                  0.110000D+01           1.0000000
            ****
            -N     0
            S   7   1.00
                  0.101643D+05           0.682757D-03
                  0.152481D+04           0.527488D-02
                  0.347119D+03           0.270037D-01
                  0.982389D+02           0.103673D+00
                  0.317799D+02           0.289575D+00
                  0.112240D+02           0.500000D+00
                  0.406611D+01           0.364621D+00
            S   2   1.00
                  0.747898D+01          -0.975681D-01
                  0.805040D+00           0.500000D+00
            S   1   1.00
                  0.324626D+00           1.0000000
            S   1   1.00
                  0.128132D+00           1.0000000
            P   4   1.00
                  0.482704D+02           0.829547D-02
                  0.110815D+02           0.596223D-01
                  0.326643D+01           0.227889D+00
                  0.111680D+01           0.500000D+00
            P   1   1.00
                  0.382049D+00           1.0000000
            P   1   1.00
                  0.121222D+00           1.0000000
            D   1   1.00
                  0.180000D+01           1.0000000
            D   1   1.00
                  0.550000D+00           1.0000000
            F   1   1.00
                  0.102000D+01           1.0000000
            ****
            -F     0
            S   7   1.00
                  0.174507D+05           0.655972D-03
                  0.261768D+04           0.506944D-02
                  0.595857D+03           0.259899D-01
                  0.168651D+03           0.100353D+00
                  0.546654D+02           0.284095D+00
                  0.193717D+02           0.500000D+00
                  0.706202D+01           0.370721D+00
            S   2   1.00
                  0.131197D+02          -0.101997D+00
                  0.145046D+01           0.500000D+00
            S   1   1.00
                  0.588255D+00           1.0000000
            S   1   1.00
                  0.227960D+00           1.0000000
            P   4   1.00
                  0.779407D+02           0.931135D-02
                  0.180425D+02           0.663964D-01
                  0.542342D+01           0.246386D+00
                  0.184876D+01           0.500000D+00
            P   1   1.00
                  0.617455D+00           1.0000000
            P   1   1.00
                  0.185496D+00           1.0000000
            D   1   1.00
                  0.280000D+01           1.0000000
            D   1   1.00
                  0.800000D+00           1.0000000
            F   1   1.00
                  0.120000D+01           1.0000000
            ****
            -Cl     0
            S   8   1.00
                  0.154272D+06           0.222473D-03
                  0.231232D+05           0.172590D-02
                  0.526257D+04           0.899286D-02
                  0.148995D+04           0.367724D-01
                  0.485417D+03           0.121446D+00
                  0.174634D+03           0.304148D+00
                  0.672393D+02           0.500000D+00
                  0.265780D+02           0.360252D+00
            S   3   1.00
                  0.131826D+03          -0.531330D-01
                  0.400703D+02          -0.233346D+00
                  0.789448D+01           0.500000D+00
            S   2   1.00
                  0.427711D+01           0.500000D+00
                  0.196233D+01           0.370517D+00
            S   1   1.00
                  0.520793D+00           1.0000000
            S   1   1.00
                  0.181633D+00           1.0000000
            P   7   1.00
                  0.124440D+04           0.988206D-03
                  0.295109D+03           0.829674D-02
                  0.947224D+02           0.430906D-01
                  0.352588D+02           0.148443D+00
                  0.144211D+02           0.344744D+00
                  0.610371D+01           0.500000D+00
                  0.258886D+01           0.348278D+00
            P   2   1.00
                  0.109447D+02          -0.196768D-01
                  0.104413D+01           0.500000D+00
            P   1   1.00
                  0.376184D+00           1.0000000
            P   1   1.00
                  0.120613D+00           1.0000000
            D   1   1.00
                  0.231000D+01           1.0000000
            D   1   1.00
                  0.520000D+00           1.0000000
            F   1   1.00
                  0.720000D+00           1.0000000
            ****
            -S     0
            S   8   1.00
                  0.134700D+06           0.226231D-03
                  0.201904D+05           0.175488D-02
                  0.459528D+04           0.914190D-02
                  0.130109D+04           0.373551D-01
                  0.423902D+03           0.123121D+00
                  0.152485D+03           0.306801D+00
                  0.586925D+02           0.500000D+00
                  0.231461D+02           0.354358D+00
            S   3   1.00
                  0.116327D+03          -0.491772D-01
                  0.352841D+02          -0.215962D+00
                  0.677831D+01           0.500000D+00
            S   2   1.00
                  0.360404D+01           0.500000D+00
                  0.164871D+01           0.366278D+00
            S   1   1.00
                  0.421821D+00           1.0000000
            S   1   1.00
                  0.147554D+00           1.0000000
            P   7   1.00
                  0.104863D+04           0.105273D-02
                  0.248717D+03           0.879338D-02
                  0.797887D+02           0.453358D-01
                  0.296023D+02           0.154476D+00
                  0.120627D+02           0.352366D+00
                  0.507628D+01           0.500000D+00
                  0.213375D+01           0.346429D+00
            P   2   1.00
                  0.928958D+01          -0.185932D-01
                  0.837819D+00           0.500000D+00
            P   1   1.00
                  0.301495D+00           1.0000000
            P   1   1.00
                  0.974740D-01           1.0000000
            D   1   1.00
                  0.210000D+01           1.0000000
            D   1   1.00
                  0.480000D+00           1.0000000
            F   1   1.00
                  0.660000D+00           1.0000000
            ****
            -Br     0
            S    10   1.00
                  0.233625D+07           0.532336D-04
                  0.349961D+06           0.413715D-03
                  0.796444D+05           0.217123D-02
                  0.225555D+05           0.910109D-02
                  0.735546D+04           0.323789D-01
                  0.265352D+04           0.988755D-01
                  0.103517D+04           0.248138D+00
                  0.422205D+03           0.474328D+00
                  0.180035D+03           0.500000D+00
                  0.793308D+02           0.187769D+00
            S    4   1.00
                  0.620834D+03          -0.226511D-01
                  0.190829D+03          -0.109497D+00
                  0.312505D+02           0.500000D+00
                  0.135270D+02           0.492812D+00
            S    2   1.00
                  0.216097D+02          -0.165418D+00
                  0.372566D+01           0.500000D+00
            S    1   1.00
                  0.169770D+01           1.0000000
            S    1   1.00
                  0.489332D+00           1.0000000
            S    1   1.00
                  0.175712D+00           1.0000000
            P    8   1.00
                  0.960829D+04           0.478974D-03
                  0.227618D+04           0.417853D-02
                  0.736723D+03           0.229315D-01
                  0.281579D+03           0.892653D-01
                  0.118395D+03           0.255288D+00
                  0.527481D+02           0.479074D+00
                  0.245098D+02           0.500000D+00
                  0.112009D+02           0.200944D+00
            P    4   1.00
                  0.587849D+02          -0.189674D-01
                  0.918962D+01           0.264104D+00
                  0.413895D+01           0.500000D+00
                  0.184225D+01           0.319316D+00
            P    1   1.00
                  0.713862D+00           1.0000000
            P    1   1.00
                  0.274232D+00           1.0000000
            P    1   1.00
                  0.944411D-01           1.0000000
            D    7   1.00
                  0.398470D+03           0.204066D-02
                  0.118967D+03           0.175171D-01
                  0.450197D+02           0.829708D-01
                  0.190320D+02           0.236284D+00
                  0.855686D+01           0.428468D+00
                  0.382950D+01           0.500000D+00
                  0.166291D+01           0.349360D+00
            D    1   1.00
                  0.672953D+00           1.0000000
            D    1   1.00
                  0.252000D+00           1.0000000
            F    1   1.00
                  0.530000D+00           1.0000000
            ****
            -Si     0
            S    8   1.00
                  0.996133D+05           0.235546D-03
                  0.149311D+05           0.182707D-02
                  0.339820D+04           0.951425D-02
                  0.962140D+03           0.388172D-01
                  0.313430D+03           0.127328D+00
                  0.112683D+03           0.313522D+00
                  0.433372D+02           0.500000D+00
                  0.170029D+02           0.340347D+00
            S    3   1.00
                  0.884208D+02          -0.404451D-01
                  0.266756D+02          -0.178059D+00
                  0.479640D+01           0.500000D+00
            S    2   1.00
                  0.239385D+01           0.500000D+00
                  0.108333D+01           0.338016D+00
            S    1   1.00
                  0.252420D+00           1.0000000
            S    1   1.00
                  0.891210D-01           1.0000000
            P    7   1.00
                  0.709901D+03           0.123028D-02
                  0.168426D+03           0.101366D-01
                  0.539946D+02           0.511840D-01
                  0.198646D+02           0.169967D+00
                  0.801369D+01           0.370717D+00
                  0.331870D+01           0.500000D+00
                  0.136112D+01           0.344128D+00
            P    2   1.00
                  0.622158D+01          -0.166609D-01
                  0.503049D+00           0.500000D+00
            P    1   1.00
                  0.179848D+00           1.0000000
            P    1   1.00
                  0.591912D-01           1.0000000
            D    1   1.00
                  0.168000D+01           1.0000000
            D    1   1.00
                  0.380000D+00           1.0000000
            F    1   1.00
                  0.540000D+00           1.0000000
            ****
            -P     0
            S    8   1.00
                  0.116416D+06           0.230715D-03
                  0.174500D+05           0.178960D-02
                  0.397149D+04           0.932116D-02
                  0.112447D+04           0.380591D-01
                  0.366347D+03           0.125148D+00
                  0.131757D+03           0.310022D+00
                  0.506988D+02           0.500000D+00
                  0.199436D+02           0.347528D+00
            S    3   1.00
                  0.101878D+03          -0.446755D-01
                  0.308249D+02          -0.196376D+00
                  0.573688D+01           0.500000D+00
            S    2   1.00
                  0.296868D+01           0.500000D+00
                  0.135315D+01           0.355098D+00
            S    1   1.00
                  0.332196D+00           1.0000000
            S    1   1.00
                  0.116229D+00           1.0000000
            P    7   1.00
                  0.873928D+03           0.112375D-02
                  0.207298D+03           0.933330D-02
                  0.664628D+02           0.477213D-01
                  0.245665D+02           0.160733D+00
                  0.996820D+01           0.359760D+00
                  0.416536D+01           0.500000D+00
                  0.173022D+01           0.346593D+00
            P    2   1.00
                  0.772530D+01          -0.175718D-01
                  0.657252D+00           0.500000D+00
            P    1   1.00
                  0.239903D+00           1.0000000
            P    1   1.00
                  0.800988D-01           1.0000000
            D    1   1.00
                  0.189000D+01           1.0000000
            D    1   1.00
                  0.430000D+00           1.0000000
            F    1   1.00
                  0.600000D+00           1.0000000
            ****
            
 Initial command:
 /usr/local/apps/g16_b01_avx/g16/l1.exe "/wrk/irikura/Gau-5930.inp" -scrdir="/wrk/irikura/"
 Entering Link 1 = /usr/local/apps/g16_b01_avx/g16/l1.exe PID=      5932.
  
 Copyright (c) 1988-2017, Gaussian, Inc.  All Rights Reserved.
  
 This is part of the Gaussian(R) 16 program.  It is based on
 the Gaussian(R) 09 system (copyright 2009, Gaussian, Inc.),
 the Gaussian(R) 03 system (copyright 2003, Gaussian, Inc.),
 the Gaussian(R) 98 system (copyright 1998, Gaussian, Inc.),
 the Gaussian(R) 94 system (copyright 1995, Gaussian, Inc.),
 the Gaussian 92(TM) system (copyright 1992, Gaussian, Inc.),
 the Gaussian 90(TM) system (copyright 1990, Gaussian, Inc.),
 the Gaussian 88(TM) system (copyright 1988, Gaussian, Inc.),
 the Gaussian 86(TM) system (copyright 1986, Carnegie Mellon
 University), and the Gaussian 82(TM) system (copyright 1983,
 Carnegie Mellon University). Gaussian is a federally registered
 trademark of Gaussian, Inc.
  
 This software contains proprietary and confidential information,
 including trade secrets, belonging to Gaussian, Inc.
  
 This software is provided under written license and may be
 used, copied, transmitted, or stored only in accord with that
 written license.
  
 The following legend is applicable only to US Government
 contracts under FAR:
  
                    RESTRICTED RIGHTS LEGEND
  
 Use, reproduction and disclosure by the US Government is
 subject to restrictions as set forth in subparagraphs (a)
 and (c) of the Commercial Computer Software - Restricted
 Rights clause in FAR 52.227-19.
  
 Gaussian, Inc.
 340 Quinnipiac St., Bldg. 40, Wallingford CT 06492
  
  
 ---------------------------------------------------------------
 Warning -- This program may not be used in any manner that
 competes with the business of Gaussian, Inc. or will provide
 assistance to any competitor of Gaussian, Inc.  The licensee
 of this program is prohibited from giving any competitor of
 Gaussian, Inc. access to this program.  By using this program,
 the user acknowledges that Gaussian, Inc. is engaged in the
 business of creating and licensing software in the field of
 computational chemistry and represents and warrants to the
 licensee that it is not a competitor of Gaussian, Inc. and that
 it will not use this program in any manner prohibited above.
 ---------------------------------------------------------------
  

 Cite this work as:
 Gaussian 16, Revision B.01,
 M. J. Frisch, G. W. Trucks, H. B. Schlegel, G. E. Scuseria, 
 M. A. Robb, J. R. Cheeseman, G. Scalmani, V. Barone, 
 G. A. Petersson, H. Nakatsuji, X. Li, M. Caricato, A. V. Marenich, 
 J. Bloino, B. G. Janesko, R. Gomperts, B. Mennucci, H. P. Hratchian, 
 J. V. Ortiz, A. F. Izmaylov, J. L. Sonnenberg, D. Williams-Young, 
 F. Ding, F. Lipparini, F. Egidi, J. Goings, B. Peng, A. Petrone, 
 T. Henderson, D. Ranasinghe, V. G. Zakrzewski, J. Gao, N. Rega, 
 G. Zheng, W. Liang, M. Hada, M. Ehara, K. Toyota, R. Fukuda, 
 J. Hasegawa, M. Ishida, T. Nakajima, Y. Honda, O. Kitao, H. Nakai, 
 T. Vreven, K. Throssell, J. A. Montgomery, Jr., J. E. Peralta, 
 F. Ogliaro, M. J. Bearpark, J. J. Heyd, E. N. Brothers, K. N. Kudin, 
 V. N. Staroverov, T. A. Keith, R. Kobayashi, J. Normand, 
 K. Raghavachari, A. P. Rendell, J. C. Burant, S. S. Iyengar, 
 J. Tomasi, M. Cossi, J. M. Millam, M. Klene, C. Adamo, R. Cammi, 
 J. W. Ochterski, R. L. Martin, K. Morokuma, O. Farkas, 
 J. B. Foresman, and D. J. Fox, Gaussian, Inc., Wallingford CT, 2016.
 
 ******************************************
 Gaussian 16:  ES64L-G16RevB.01 20-Dec-2017
                17-Jun-2022 
 ******************************************
 %mem=1000mw
 %nprocs=12
 Will use up to   12 processors via shared memory.
 --------------------
 # b3lyp/gen opt freq
 --------------------
 1/18=20,19=15,26=3,38=1/1,3;
 2/9=110,12=2,17=6,18=5,40=1/2;
 3/5=7,11=2,25=1,30=1,71=1,74=-5/1,2,3;
 4//1;
 5/5=2,38=5/2;
 6/7=2,8=2,9=2,10=2,28=1/1;
 7//1,2,3,16;
 1/18=20,19=15,26=3/3(2);
 2/9=110/2;
 99//99;
 2/9=110/2;
 3/5=7,6=1,11=2,25=1,30=1,71=1,74=-5,82=7/1,2,3;
 4/5=5,16=3,69=1/1;
 5/5=2,38=5/2;
 7//1,2,3,16;
 1/18=20,19=15,26=3/3(-5);
 2/9=110/2;
 6/7=2,8=2,9=2,10=2,19=2,28=1/1;
 99/9=1/99;
 --------------------------------
 tetramethylsilane, B3LYP/pcseg-2
 --------------------------------
 Symbolic Z-matrix:
 Charge =  0 Multiplicity = 1
 Si                    0.        0.        0. 
 C                     1.0957    1.0957    1.0957 
 C                    -1.0957   -1.0957    1.0957 
 C                    -1.0957    1.0957   -1.0957 
 C                     1.0957   -1.0957   -1.0957 
 H                     1.73982   0.49175   1.73982 
 H                     1.73982   1.73982   0.49175 
 H                     0.49175   1.73982   1.73982 
 H                    -1.73982  -1.73982   0.49175 
 H                    -0.49175  -1.73982   1.73982 
 H                    -1.73982  -0.49175   1.73982 
 H                    -1.73982   0.49175  -1.73982 
 H                    -1.73982   1.73982  -0.49175 
 H                    -0.49175   1.73982  -1.73982 
 H                     1.73982  -1.73982  -0.49175 
 H                     0.49175  -1.73982  -1.73982 
 H                     1.73982  -0.49175  -1.73982 
 

 GradGradGradGradGradGradGradGradGradGradGradGradGradGradGradGradGradGrad
 Berny optimization.
 Initialization pass.
                           ----------------------------
                           !    Initial Parameters    !
                           ! (Angstroms and Degrees)  !
 --------------------------                            --------------------------
 ! Name  Definition              Value          Derivative Info.                !
 --------------------------------------------------------------------------------
 ! R1    R(1,2)                  1.8978         estimate D2E/DX2                !
 ! R2    R(1,3)                  1.8978         estimate D2E/DX2                !
 ! R3    R(1,4)                  1.8978         estimate D2E/DX2                !
 ! R4    R(1,5)                  1.8978         estimate D2E/DX2                !
 ! R5    R(2,6)                  1.0929         estimate D2E/DX2                !
 ! R6    R(2,7)                  1.0929         estimate D2E/DX2                !
 ! R7    R(2,8)                  1.0929         estimate D2E/DX2                !
 ! R8    R(3,9)                  1.0929         estimate D2E/DX2                !
 ! R9    R(3,10)                 1.0929         estimate D2E/DX2                !
 ! R10   R(3,11)                 1.0929         estimate D2E/DX2                !
 ! R11   R(4,12)                 1.0929         estimate D2E/DX2                !
 ! R12   R(4,13)                 1.0929         estimate D2E/DX2                !
 ! R13   R(4,14)                 1.0929         estimate D2E/DX2                !
 ! R14   R(5,15)                 1.0929         estimate D2E/DX2                !
 ! R15   R(5,16)                 1.0929         estimate D2E/DX2                !
 ! R16   R(5,17)                 1.0929         estimate D2E/DX2                !
 ! A1    A(2,1,3)              109.4712         estimate D2E/DX2                !
 ! A2    A(2,1,4)              109.4712         estimate D2E/DX2                !
 ! A3    A(2,1,5)              109.4712         estimate D2E/DX2                !
 ! A4    A(3,1,4)              109.4712         estimate D2E/DX2                !
 ! A5    A(3,1,5)              109.4712         estimate D2E/DX2                !
 ! A6    A(4,1,5)              109.4712         estimate D2E/DX2                !
 ! A7    A(1,2,6)              111.1909         estimate D2E/DX2                !
 ! A8    A(1,2,7)              111.1909         estimate D2E/DX2                !
 ! A9    A(1,2,8)              111.1909         estimate D2E/DX2                !
 ! A10   A(6,2,7)              107.6982         estimate D2E/DX2                !
 ! A11   A(6,2,8)              107.6982         estimate D2E/DX2                !
 ! A12   A(7,2,8)              107.6982         estimate D2E/DX2                !
 ! A13   A(1,3,9)              111.1909         estimate D2E/DX2                !
 ! A14   A(1,3,10)             111.1909         estimate D2E/DX2                !
 ! A15   A(1,3,11)             111.1909         estimate D2E/DX2                !
 ! A16   A(9,3,10)             107.6982         estimate D2E/DX2                !
 ! A17   A(9,3,11)             107.6982         estimate D2E/DX2                !
 ! A18   A(10,3,11)            107.6982         estimate D2E/DX2                !
 ! A19   A(1,4,12)             111.1909         estimate D2E/DX2                !
 ! A20   A(1,4,13)             111.1909         estimate D2E/DX2                !
 ! A21   A(1,4,14)             111.1909         estimate D2E/DX2                !
 ! A22   A(12,4,13)            107.6982         estimate D2E/DX2                !
 ! A23   A(12,4,14)            107.6982         estimate D2E/DX2                !
 ! A24   A(13,4,14)            107.6982         estimate D2E/DX2                !
 ! A25   A(1,5,15)             111.1909         estimate D2E/DX2                !
 ! A26   A(1,5,16)             111.1909         estimate D2E/DX2                !
 ! A27   A(1,5,17)             111.1909         estimate D2E/DX2                !
 ! A28   A(15,5,16)            107.6982         estimate D2E/DX2                !
 ! A29   A(15,5,17)            107.6982         estimate D2E/DX2                !
 ! A30   A(16,5,17)            107.6982         estimate D2E/DX2                !
 ! D1    D(3,1,2,6)             60.0            estimate D2E/DX2                !
 ! D2    D(3,1,2,7)            180.0            estimate D2E/DX2                !
 ! D3    D(3,1,2,8)            -60.0            estimate D2E/DX2                !
 ! D4    D(4,1,2,6)            180.0            estimate D2E/DX2                !
 ! D5    D(4,1,2,7)            -60.0            estimate D2E/DX2                !
 ! D6    D(4,1,2,8)             60.0            estimate D2E/DX2                !
 ! D7    D(5,1,2,6)            -60.0            estimate D2E/DX2                !
 ! D8    D(5,1,2,7)             60.0            estimate D2E/DX2                !
 ! D9    D(5,1,2,8)            180.0            estimate D2E/DX2                !
 ! D10   D(2,1,3,9)            180.0            estimate D2E/DX2                !
 ! D11   D(2,1,3,10)           -60.0            estimate D2E/DX2                !
 ! D12   D(2,1,3,11)            60.0            estimate D2E/DX2                !
 ! D13   D(4,1,3,9)             60.0            estimate D2E/DX2                !
 ! D14   D(4,1,3,10)           180.0            estimate D2E/DX2                !
 ! D15   D(4,1,3,11)           -60.0            estimate D2E/DX2                !
 ! D16   D(5,1,3,9)            -60.0            estimate D2E/DX2                !
 ! D17   D(5,1,3,10)            60.0            estimate D2E/DX2                !
 ! D18   D(5,1,3,11)           180.0            estimate D2E/DX2                !
 ! D19   D(2,1,4,12)           180.0            estimate D2E/DX2                !
 ! D20   D(2,1,4,13)           -60.0            estimate D2E/DX2                !
 ! D21   D(2,1,4,14)            60.0            estimate D2E/DX2                !
 ! D22   D(3,1,4,12)           -60.0            estimate D2E/DX2                !
 ! D23   D(3,1,4,13)            60.0            estimate D2E/DX2                !
 ! D24   D(3,1,4,14)           180.0            estimate D2E/DX2                !
 ! D25   D(5,1,4,12)            60.0            estimate D2E/DX2                !
 ! D26   D(5,1,4,13)           180.0            estimate D2E/DX2                !
 ! D27   D(5,1,4,14)           -60.0            estimate D2E/DX2                !
 ! D28   D(2,1,5,15)            60.0            estimate D2E/DX2                !
 ! D29   D(2,1,5,16)           180.0            estimate D2E/DX2                !
 ! D30   D(2,1,5,17)           -60.0            estimate D2E/DX2                !
 ! D31   D(3,1,5,15)           -60.0            estimate D2E/DX2                !
 ! D32   D(3,1,5,16)            60.0            estimate D2E/DX2                !
 ! D33   D(3,1,5,17)           180.0            estimate D2E/DX2                !
 ! D34   D(4,1,5,15)           180.0            estimate D2E/DX2                !
 ! D35   D(4,1,5,16)           -60.0            estimate D2E/DX2                !
 ! D36   D(4,1,5,17)            60.0            estimate D2E/DX2                !
 --------------------------------------------------------------------------------
 Trust Radius=3.00D-01 FncErr=1.00D-07 GrdErr=1.00D-06 EigMax=2.50D+02 EigMin=1.00D-04
 Number of steps in this run=     92 maximum allowed number of steps=    102.
 GradGradGradGradGradGradGradGradGradGradGradGradGradGradGradGradGradGrad

                          Input orientation:                          
 ---------------------------------------------------------------------
 Center     Atomic      Atomic             Coordinates (Angstroms)
 Number     Number       Type             X           Y           Z
 ---------------------------------------------------------------------
      1         14           0        0.000000    0.000000    0.000000
      2          6           0        1.095703    1.095703    1.095703
      3          6           0       -1.095703   -1.095703    1.095703
      4          6           0       -1.095703    1.095703   -1.095703
      5          6           0        1.095703   -1.095703   -1.095703
      6          1           0        1.739823    0.491753    1.739823
      7          1           0        1.739823    1.739823    0.491753
      8          1           0        0.491753    1.739823    1.739823
      9          1           0       -1.739823   -1.739823    0.491753
     10          1           0       -0.491753   -1.739823    1.739823
     11          1           0       -1.739823   -0.491753    1.739823
     12          1           0       -1.739823    0.491753   -1.739823
     13          1           0       -1.739823    1.739823   -0.491753
     14          1           0       -0.491753    1.739823   -1.739823
     15          1           0        1.739823   -1.739823   -0.491753
     16          1           0        0.491753   -1.739823   -1.739823
     17          1           0        1.739823   -0.491753   -1.739823
 ---------------------------------------------------------------------
                    Distance matrix (angstroms):
                    1          2          3          4          5
     1  Si   0.000000
     2  C    1.897813   0.000000
     3  C    1.897813   3.099116   0.000000
     4  C    1.897813   3.099116   3.099116   0.000000
     5  C    1.897813   3.099116   3.099116   3.099116   0.000000
     6  H    2.509141   1.092949   3.312871   4.055265   3.312871
     7  H    2.509141   1.092949   4.055265   3.312871   3.312871
     8  H    2.509141   1.092949   3.312871   3.312871   4.055265
     9  H    2.509141   4.055265   1.092949   3.312871   3.312871
    10  H    2.509141   3.312871   1.092949   4.055265   3.312871
    11  H    2.509141   3.312871   1.092949   3.312871   4.055265
    12  H    2.509141   4.055265   3.312871   1.092949   3.312871
    13  H    2.509141   3.312871   3.312871   1.092949   4.055265
    14  H    2.509141   3.312871   4.055265   1.092949   3.312871
    15  H    2.509141   3.312871   3.312871   4.055265   1.092949
    16  H    2.509141   4.055265   3.312871   3.312871   1.092949
    17  H    2.509141   3.312871   4.055265   3.312871   1.092949
                    6          7          8          9         10
     6  H    0.000000
     7  H    1.765038   0.000000
     8  H    1.765038   1.765038   0.000000
     9  H    4.318049   4.920963   4.318049   0.000000
    10  H    3.155925   4.318049   3.615967   1.765038   0.000000
    11  H    3.615967   4.318049   3.155925   1.765038   1.765038
    12  H    4.920963   4.318049   4.318049   3.155925   4.318049
    13  H    4.318049   3.615967   3.155925   3.615967   4.318049
    14  H    4.318049   3.155925   3.615967   4.318049   4.920963
    15  H    3.155925   3.615967   4.318049   3.615967   3.155925
    16  H    4.318049   4.318049   4.920963   3.155925   3.615967
    17  H    3.615967   3.155925   4.318049   4.318049   4.318049
                   11         12         13         14         15
    11  H    0.000000
    12  H    3.615967   0.000000
    13  H    3.155925   1.765038   0.000000
    14  H    4.318049   1.765038   1.765038   0.000000
    15  H    4.318049   4.318049   4.920963   4.318049   0.000000
    16  H    4.318049   3.155925   4.318049   3.615967   1.765038
    17  H    4.920963   3.615967   4.318049   3.155925   1.765038
                   16         17
    16  H    0.000000
    17  H    1.765038   0.000000
 Stoichiometry    C4H12Si
 Framework group  TD[O(Si),4C3(C),6SGD(H2)]
 Deg. of freedom     3
 Full point group                 TD      NOp  24
 Largest Abelian subgroup         D2      NOp   4
 Largest concise Abelian subgroup D2      NOp   4
                         Standard orientation:                         
 ---------------------------------------------------------------------
 Center     Atomic      Atomic             Coordinates (Angstroms)
 Number     Number       Type             X           Y           Z
 ---------------------------------------------------------------------
      1         14           0        0.000000    0.000000    0.000000
      2          6           0        1.095703    1.095703    1.095703
      3          6           0       -1.095703   -1.095703    1.095703
      4          6           0       -1.095703    1.095703   -1.095703
      5          6           0        1.095703   -1.095703   -1.095703
      6          1           0        1.739823    0.491753    1.739823
      7          1           0        1.739823    1.739823    0.491753
      8          1           0        0.491753    1.739823    1.739823
      9          1           0       -1.739823   -1.739823    0.491753
     10          1           0       -0.491753   -1.739823    1.739823
     11          1           0       -1.739823   -0.491753    1.739823
     12          1           0       -1.739823    0.491753   -1.739823
     13          1           0       -1.739823    1.739823   -0.491753
     14          1           0       -0.491753    1.739823   -1.739823
     15          1           0        1.739823   -1.739823   -0.491753
     16          1           0        0.491753   -1.739823   -1.739823
     17          1           0        1.739823   -0.491753   -1.739823
 ---------------------------------------------------------------------
 Rotational constants (GHZ):           3.0441827           3.0441827           3.0441827
 General basis read from cards:  (5D, 7F)
 There are    92 symmetry adapted cartesian basis functions of A   symmetry.
 There are    89 symmetry adapted cartesian basis functions of B1  symmetry.
 There are    89 symmetry adapted cartesian basis functions of B2  symmetry.
 There are    89 symmetry adapted cartesian basis functions of B3  symmetry.
 There are    82 symmetry adapted basis functions of A   symmetry.
 There are    80 symmetry adapted basis functions of B1  symmetry.
 There are    80 symmetry adapted basis functions of B2  symmetry.
 There are    80 symmetry adapted basis functions of B3  symmetry.
   322 basis functions,   490 primitive gaussians,   359 cartesian basis functions
    25 alpha electrons       25 beta electrons
       nuclear repulsion energy       244.2119783258 Hartrees.
 NAtoms=   17 NActive=   17 NUniq=    3 SFac= 4.00D+00 NAtFMM=   60 NAOKFM=F Big=F
 Integral buffers will be    131072 words long.
 Raffenetti 2 integral format.
 Two-electron integral symmetry is turned on.
 One-electron integrals computed using PRISM.
 NBasis=   322 RedAO= T EigKep=  1.30D-03  NBF=    82    80    80    80
 NBsUse=   322 1.00D-06 EigRej= -1.00D+00 NBFU=    82    80    80    80
 ExpMin= 5.92D-02 ExpMax= 9.96D+04 ExpMxC= 9.62D+02 IAcc=3 IRadAn=         5 AccDes= 0.00D+00
 Harris functional with IExCor=  402 and IRadAn=       5 diagonalized for initial guess.
 HarFok:  IExCor=  402 AccDes= 0.00D+00 IRadAn=         5 IDoV= 1 UseB2=F ITyADJ=14
 ICtDFT=  3500011 ScaDFX=  1.000000  1.000000  1.000000  1.000000
 FoFCou: FMM=F IPFlag=           0 FMFlag=      100000 FMFlg1=           0
         NFxFlg=           0 DoJE=T BraDBF=F KetDBF=T FulRan=T
         wScrn=  0.000000 ICntrl=       500 IOpCl=  0 I1Cent=   200000004 NGrid=           0
         NMat0=    1 NMatS0=      1 NMatT0=    0 NMatD0=    1 NMtDS0=    0 NMtDT0=    0
 Petite list used in FoFCou.
 Initial guess orbital symmetries:
       Occupied  (A1) (A1) (T2) (T2) (T2) (A1) (T2) (T2) (T2) (A1)
                 (T2) (T2) (T2) (A1) (T2) (T2) (T2) (E) (E) (T1)
                 (T1) (T1) (T2) (T2) (T2)
       Virtual   (A1) (T2) (T2) (T2) (T2) (T2) (T2) (A1) (E) (E)
                 (T2) (T2) (T2) (T1) (T1) (T1) (E) (E) (A1) (T2)
                 (T2) (T2) (T2) (T2) (T2) (T1) (T1) (T1) (T2) (T2)
                 (T2) (A1) (T1) (T1) (T1) (T2) (T2) (T2) (E) (E)
                 (T2) (T2) (T2) (A1) (E) (E) (A1) (T2) (T2) (T2)
                 (T2) (T2) (T2) (T1) (T1) (T1) (E) (E) (T2) (T2)
                 (T2) (T1) (T1) (T1) (T2) (T2) (T2) (A2) (T1) (T1)
                 (T1) (E) (E) (T2) (T2) (T2) (A1) (T2) (T2) (T2)
                 (T1) (T1) (T1) (E) (E) (T2) (T2) (T2) (T1) (T1)
                 (T1) (T2) (T2) (T2) (A1) (E) (E) (T2) (T2) (T2)
                 (A1) (T2) (T2) (T2) (T1) (T1) (T1) (E) (E) (T1)
                 (T1) (T1) (T2) (T2) (T2) (E) (E) (A1) (T2) (T2)
                 (T2) (T2) (T2) (T2) (T2) (T2) (T2) (A1) (T1) (T1)
                 (T1) (A1) (T2) (T2) (T2) (T2) (T2) (T2) (E) (E)
                 (A1) (T2) (T2) (T2) (T1) (T1) (T1) (E) (E) (T2)
                 (T2) (T2) (T1) (T1) (T1) (A1) (A2) (T1) (T1) (T1)
                 (T2) (T2) (T2) (E) (E) (T2) (T2) (T2) (T1) (T1)
                 (T1) (E) (E) (T2) (T2) (T2) (E) (E) (T1) (T1)
                 (T1) (T2) (T2) (T2) (A2) (T1) (T1) (T1) (T1) (T1)
                 (T1) (T2) (T2) (T2) (E) (E) (E) (E) (T2) (T2)
                 (T2) (A1) (T1) (T1) (T1) (T2) (T2) (T2) (A1) (T2)
                 (T2) (T2) (E) (E) (T1) (T1) (T1) (A1) (T2) (T2)
                 (T2) (E) (E) (T1) (T1) (T1) (T2) (T2) (T2) (T1)
                 (T1) (T1) (A2) (T2) (T2) (T2) (E) (E) (T2) (T2)
                 (T2) (A1) (T1) (T1) (T1) (T2) (T2) (T2) (A1) (T2)
                 (T2) (T2) (T1) (T1) (T1) (E) (E) (T2) (T2) (T2)
                 (T2) (T2) (T2) (A1) (T1) (T1) (T1) (E) (E) (T2)
                 (T2) (T2) (A2) (T1) (T1) (T1) (T2) (T2) (T2) (T1)
                 (T1) (T1) (A1) (E) (E) (T2) (T2) (T2) (E) (E)
                 (T2) (T2) (T2) (T1) (T1) (T1) (A1)
 The electronic state of the initial guess is 1-A1.
 Requested convergence on RMS density matrix=1.00D-08 within 128 cycles.
 Requested convergence on MAX density matrix=1.00D-06.
 Requested convergence on             energy=1.00D-06.
 No special actions if energy rises.
 Integral accuracy reduced to 1.0D-05 until final iterations.
 Initial convergence to 1.0D-05 achieved.  Increase integral accuracy.
 SCF Done:  E(RB3LYP) =  -449.303201061     A.U. after   11 cycles
            NFock= 11  Conv=0.10D-08     -V/T= 2.0025

 **********************************************************************

            Population analysis using the SCF Density.

 **********************************************************************

 Orbital symmetries:
       Occupied  (A1) (T2) (T2) (T2) (A1) (A1) (T2) (T2) (T2) (A1)
                 (T2) (T2) (T2) (A1) (T2) (T2) (T2) (E) (E) (T1)
                 (T1) (T1) (T2) (T2) (T2)
       Virtual   (A1) (T2) (T2) (T2) (T2) (T2) (T2) (E) (E) (A1)
                 (T1) (T1) (T1) (T2) (T2) (T2) (E) (E) (T2) (T2)
                 (T2) (T2) (T2) (T2) (A1) (T1) (T1) (T1) (T2) (T2)
                 (T2) (A1) (T1) (T1) (T1) (E) (E) (T2) (T2) (T2)
                 (T2) (T2) (T2) (A1) (E) (E) (A1) (T2) (T2) (T2)
                 (T1) (T1) (T1) (T2) (T2) (T2) (E) (E) (T2) (T2)
                 (T2) (T1) (T1) (T1) (A2) (T2) (T2) (T2) (T1) (T1)
                 (T1) (E) (E) (T2) (T2) (T2) (A1) (T2) (T2) (T2)
                 (T1) (T1) (T1) (E) (E) (T2) (T2) (T2) (T1) (T1)
                 (T1) (T2) (T2) (T2) (A1) (E) (E) (A1) (T2) (T2)
                 (T2) (T2) (T2) (T2) (T1) (T1) (T1) (E) (E) (T2)
                 (T2) (T2) (T1) (T1) (T1) (E) (E) (A1) (T2) (T2)
                 (T2) (T2) (T2) (T2) (T2) (T2) (T2) (A1) (T1) (T1)
                 (T1) (A1) (T2) (T2) (T2) (T2) (T2) (T2) (A1) (E)
                 (E) (T2) (T2) (T2) (T1) (T1) (T1) (E) (E) (T2)
                 (T2) (T2) (T1) (T1) (T1) (A1) (A2) (T1) (T1) (T1)
                 (T2) (T2) (T2) (E) (E) (T2) (T2) (T2) (T1) (T1)
                 (T1) (E) (E) (T2) (T2) (T2) (E) (E) (T1) (T1)
                 (T1) (A2) (T1) (T1) (T1) (T2) (T2) (T2) (T1) (T1)
                 (T1) (T2) (T2) (T2) (E) (E) (E) (E) (T2) (T2)
                 (T2) (T1) (T1) (T1) (A1) (T2) (T2) (T2) (A1) (T2)
                 (T2) (T2) (E) (E) (T1) (T1) (T1) (T2) (T2) (T2)
                 (A1) (T1) (T1) (T1) (E) (E) (T2) (T2) (T2) (T1)
                 (T1) (T1) (A2) (T2) (T2) (T2) (E) (E) (T2) (T2)
                 (T2) (A1) (T1) (T1) (T1) (T2) (T2) (T2) (A1) (T2)
                 (T2) (T2) (T1) (T1) (T1) (E) (E) (T2) (T2) (T2)
                 (T2) (T2) (T2) (A1) (T1) (T1) (T1) (E) (E) (T2)
                 (T2) (T2) (A2) (T1) (T1) (T1) (T2) (T2) (T2) (T1)
                 (T1) (T1) (A1) (E) (E) (T2) (T2) (T2) (E) (E)
                 (T2) (T2) (T2) (T1) (T1) (T1) (A1)
 The electronic state is 1-A1.
 Alpha  occ. eigenvalues --  -66.06399 -10.14407 -10.14407 -10.14407 -10.14406
 Alpha  occ. eigenvalues --   -5.24648  -3.60395  -3.60395  -3.60395  -0.71848
 Alpha  occ. eigenvalues --   -0.67662  -0.67662  -0.67662  -0.45755  -0.41368
 Alpha  occ. eigenvalues --   -0.41368  -0.41368  -0.39907  -0.39907  -0.38183
 Alpha  occ. eigenvalues --   -0.38183  -0.38183  -0.29801  -0.29801  -0.29801
 Alpha virt. eigenvalues --    0.00329   0.04208   0.04208   0.04208   0.06233
 Alpha virt. eigenvalues --    0.06233   0.06233   0.09834   0.09834   0.11147
 Alpha virt. eigenvalues --    0.11577   0.11577   0.11577   0.11901   0.11901
 Alpha virt. eigenvalues --    0.11901   0.13979   0.13979   0.18550   0.18550
 Alpha virt. eigenvalues --    0.18550   0.22806   0.22806   0.22806   0.24832
 Alpha virt. eigenvalues --    0.30739   0.30739   0.30739   0.32670   0.32670
 Alpha virt. eigenvalues --    0.32670   0.33831   0.36584   0.36584   0.36584
 Alpha virt. eigenvalues --    0.36945   0.36945   0.37439   0.37439   0.37439
 Alpha virt. eigenvalues --    0.39618   0.39618   0.39618   0.46441   0.50410
 Alpha virt. eigenvalues --    0.50410   0.55097   0.58641   0.58641   0.58641
 Alpha virt. eigenvalues --    0.70241   0.70241   0.70241   0.70456   0.70456
 Alpha virt. eigenvalues --    0.70456   0.78567   0.78567   0.89726   0.89726
 Alpha virt. eigenvalues --    0.89726   0.96751   0.96751   0.96751   0.99527
 Alpha virt. eigenvalues --    0.99685   0.99685   0.99685   1.01181   1.01181
 Alpha virt. eigenvalues --    1.01181   1.02804   1.02804   1.05703   1.05703
 Alpha virt. eigenvalues --    1.05703   1.06037   1.06810   1.06810   1.06810
 Alpha virt. eigenvalues --    1.09333   1.09333   1.09333   1.14502   1.14502
 Alpha virt. eigenvalues --    1.22742   1.22742   1.22742   1.29775   1.29775
 Alpha virt. eigenvalues --    1.29775   1.31404   1.31404   1.31404   1.34421
 Alpha virt. eigenvalues --    1.34490   1.34490   1.43261   1.44777   1.44777
 Alpha virt. eigenvalues --    1.44777   1.48818   1.48818   1.48818   1.60043
 Alpha virt. eigenvalues --    1.60043   1.60043   1.64607   1.64607   1.68611
 Alpha virt. eigenvalues --    1.68611   1.68611   1.70460   1.70460   1.70460
 Alpha virt. eigenvalues --    1.73900   1.73900   1.74595   1.79740   1.79740
 Alpha virt. eigenvalues --    1.79740   1.92506   1.92506   1.92506   1.96018
 Alpha virt. eigenvalues --    1.96018   1.96018   2.06450   2.13392   2.13392
 Alpha virt. eigenvalues --    2.13392   2.23677   2.32732   2.32732   2.32732
 Alpha virt. eigenvalues --    2.49087   2.49087   2.49087   2.49128   2.50908
 Alpha virt. eigenvalues --    2.50908   2.57016   2.57016   2.57016   2.62165
 Alpha virt. eigenvalues --    2.62165   2.62165   3.14738   3.14738   3.21465
 Alpha virt. eigenvalues --    3.21465   3.21465   3.29519   3.29519   3.29519
 Alpha virt. eigenvalues --    3.29721   3.29818   3.35035   3.35035   3.35035
 Alpha virt. eigenvalues --    3.35579   3.35579   3.35579   3.37781   3.37781
 Alpha virt. eigenvalues --    3.47768   3.47768   3.47768   3.50287   3.50287
 Alpha virt. eigenvalues --    3.50287   3.63242   3.63242   3.76111   3.76111
 Alpha virt. eigenvalues --    3.76111   3.78843   3.78843   3.81990   3.81990
 Alpha virt. eigenvalues --    3.81990   3.85853   3.85985   3.85985   3.85985
 Alpha virt. eigenvalues --    3.86845   3.86845   3.86845   3.99793   3.99793
 Alpha virt. eigenvalues --    3.99793   4.06676   4.06676   4.06676   4.08966
 Alpha virt. eigenvalues --    4.08966   4.16222   4.16222   4.18598   4.18598
 Alpha virt. eigenvalues --    4.18598   4.19966   4.19966   4.19966   4.20785
 Alpha virt. eigenvalues --    4.28389   4.28389   4.28389   4.43723   4.44222
 Alpha virt. eigenvalues --    4.44222   4.44222   4.45950   4.45950   4.51265
 Alpha virt. eigenvalues --    4.51265   4.51265   4.52522   4.52522   4.52522
 Alpha virt. eigenvalues --    4.52766   4.55409   4.55409   4.55409   4.55825
 Alpha virt. eigenvalues --    4.55825   4.60060   4.60060   4.60060   4.63456
 Alpha virt. eigenvalues --    4.63456   4.63456   4.64292   4.70222   4.70222
 Alpha virt. eigenvalues --    4.70222   4.70887   4.70887   4.76257   4.76257
 Alpha virt. eigenvalues --    4.76257   4.78059   4.79703   4.79703   4.79703
 Alpha virt. eigenvalues --    4.95744   4.95744   4.95744   5.05337   5.11725
 Alpha virt. eigenvalues --    5.11725   5.11725   5.18549   5.18549   5.18549
 Alpha virt. eigenvalues --    5.21306   5.21306   5.33177   5.33177   5.33177
 Alpha virt. eigenvalues --    5.61880   5.61880   5.61880   5.64950   5.69232
 Alpha virt. eigenvalues --    5.69232   5.69232   5.69508   5.69508   5.76149
 Alpha virt. eigenvalues --    5.76149   5.76149   5.77243   5.77318   5.77318
 Alpha virt. eigenvalues --    5.77318   5.82620   5.82620   5.82620   5.83843
 Alpha virt. eigenvalues --    5.83843   5.83843   5.87911   5.88937   5.88937
 Alpha virt. eigenvalues --    5.91742   5.91742   5.91742   6.12910   6.12910
 Alpha virt. eigenvalues --    6.16273   6.16273   6.16273   6.17878   6.17878
 Alpha virt. eigenvalues --    6.17878  15.17962
          Condensed to atoms (all electrons):
               1          2          3          4          5          6
     1  Si  12.000119   0.365903   0.365903   0.365903   0.365903  -0.015191
     2  C    0.365903   4.882468  -0.054772  -0.054772  -0.054772   0.407769
     3  C    0.365903  -0.054772   4.882468  -0.054772  -0.054772  -0.004043
     4  C    0.365903  -0.054772  -0.054772   4.882468  -0.054772   0.005567
     5  C    0.365903  -0.054772  -0.054772  -0.054772   4.882468  -0.004043
     6  H   -0.015191   0.407769  -0.004043   0.005567  -0.004043   0.609075
     7  H   -0.015191   0.407769   0.005567  -0.004043  -0.004043  -0.019412
     8  H   -0.015191   0.407769  -0.004043  -0.004043   0.005567  -0.019412
     9  H   -0.015191   0.005567   0.407769  -0.004043  -0.004043   0.000057
    10  H   -0.015191  -0.004043   0.407769   0.005567  -0.004043   0.000116
    11  H   -0.015191  -0.004043   0.407769  -0.004043   0.005567  -0.000337
    12  H   -0.015191   0.005567  -0.004043   0.407769  -0.004043  -0.000152
    13  H   -0.015191  -0.004043  -0.004043   0.407769   0.005567   0.000057
    14  H   -0.015191  -0.004043   0.005567   0.407769  -0.004043   0.000057
    15  H   -0.015191  -0.004043  -0.004043   0.005567   0.407769   0.000116
    16  H   -0.015191   0.005567  -0.004043  -0.004043   0.407769   0.000057
    17  H   -0.015191  -0.004043   0.005567  -0.004043   0.407769  -0.000337
               7          8          9         10         11         12
     1  Si  -0.015191  -0.015191  -0.015191  -0.015191  -0.015191  -0.015191
     2  C    0.407769   0.407769   0.005567  -0.004043  -0.004043   0.005567
     3  C    0.005567  -0.004043   0.407769   0.407769   0.407769  -0.004043
     4  C   -0.004043  -0.004043  -0.004043   0.005567  -0.004043   0.407769
     5  C   -0.004043   0.005567  -0.004043  -0.004043   0.005567  -0.004043
     6  H   -0.019412  -0.019412   0.000057   0.000116  -0.000337  -0.000152
     7  H    0.609075  -0.019412  -0.000152   0.000057   0.000057   0.000057
     8  H   -0.019412   0.609075   0.000057  -0.000337   0.000116   0.000057
     9  H   -0.000152   0.000057   0.609075  -0.019412  -0.019412   0.000116
    10  H    0.000057  -0.000337  -0.019412   0.609075  -0.019412   0.000057
    11  H    0.000057   0.000116  -0.019412  -0.019412   0.609075  -0.000337
    12  H    0.000057   0.000057   0.000116   0.000057  -0.000337   0.609075
    13  H   -0.000337   0.000116  -0.000337   0.000057   0.000116  -0.019412
    14  H    0.000116  -0.000337   0.000057  -0.000152   0.000057  -0.019412
    15  H   -0.000337   0.000057  -0.000337   0.000116   0.000057   0.000057
    16  H    0.000057  -0.000152   0.000116  -0.000337   0.000057   0.000116
    17  H    0.000116   0.000057   0.000057   0.000057  -0.000152  -0.000337
              13         14         15         16         17
     1  Si  -0.015191  -0.015191  -0.015191  -0.015191  -0.015191
     2  C   -0.004043  -0.004043  -0.004043   0.005567  -0.004043
     3  C   -0.004043   0.005567  -0.004043  -0.004043   0.005567
     4  C    0.407769   0.407769   0.005567  -0.004043  -0.004043
     5  C    0.005567  -0.004043   0.407769   0.407769   0.407769
     6  H    0.000057   0.000057   0.000116   0.000057  -0.000337
     7  H   -0.000337   0.000116  -0.000337   0.000057   0.000116
     8  H    0.000116  -0.000337   0.000057  -0.000152   0.000057
     9  H   -0.000337   0.000057  -0.000337   0.000116   0.000057
    10  H    0.000057  -0.000152   0.000116  -0.000337   0.000057
    11  H    0.000116   0.000057   0.000057   0.000057  -0.000152
    12  H   -0.019412  -0.019412   0.000057   0.000116  -0.000337
    13  H    0.609075  -0.019412  -0.000152   0.000057   0.000057
    14  H   -0.019412   0.609075   0.000057  -0.000337   0.000116
    15  H   -0.000152   0.000057   0.609075  -0.019412  -0.019412
    16  H    0.000057  -0.000337  -0.019412   0.609075  -0.019412
    17  H    0.000057   0.000116  -0.019412  -0.019412   0.609075
 Mulliken charges:
               1
     1  Si   0.718563
     2  C   -0.299806
     3  C   -0.299806
     4  C   -0.299806
     5  C   -0.299806
     6  H    0.040055
     7  H    0.040055
     8  H    0.040055
     9  H    0.040055
    10  H    0.040055
    11  H    0.040055
    12  H    0.040055
    13  H    0.040055
    14  H    0.040055
    15  H    0.040055
    16  H    0.040055
    17  H    0.040055
 Sum of Mulliken charges =  -0.00000
 Mulliken charges with hydrogens summed into heavy atoms:
               1
     1  Si   0.718563
     2  C   -0.179641
     3  C   -0.179641
     4  C   -0.179641
     5  C   -0.179641
 Electronic spatial extent (au):  <R**2>=            674.4010
 Charge=             -0.0000 electrons
 Dipole moment (field-independent basis, Debye):
    X=             -0.0000    Y=             -0.0000    Z=             -0.0000  Tot=              0.0000
 Quadrupole moment (field-independent basis, Debye-Ang):
   XX=            -43.0069   YY=            -43.0069   ZZ=            -43.0069
   XY=              0.0000   XZ=              0.0000   YZ=             -0.0000
 Traceless Quadrupole moment (field-independent basis, Debye-Ang):
   XX=              0.0000   YY=             -0.0000   ZZ=              0.0000
   XY=              0.0000   XZ=              0.0000   YZ=             -0.0000
 Octapole moment (field-independent basis, Debye-Ang**2):
  XXX=             -0.0000  YYY=              0.0000  ZZZ=             -0.0000  XYY=              0.0000
  XXY=              0.0000  XXZ=              0.0000  XZZ=              0.0000  YZZ=             -0.0000
  YYZ=             -0.0000  XYZ=             -5.7938
 Hexadecapole moment (field-independent basis, Debye-Ang**3):
 XXXX=           -335.0783 YYYY=           -335.0783 ZZZZ=           -335.0783 XXXY=             -0.0000
 XXXZ=             -0.0000 YYYX=             -0.0000 YYYZ=             -0.0000 ZZZX=             -0.0000
 ZZZY=              0.0000 XXYY=           -112.3290 XXZZ=           -112.3290 YYZZ=           -112.3290
 XXYZ=             -0.0000 YYXZ=              0.0000 ZZXY=              0.0000
 N-N= 2.442119783258D+02 E-N=-1.547930737406D+03  KE= 4.481896720918D+02
 Symmetry A    KE= 2.514487200634D+02
 Symmetry B1   KE= 6.558031734281D+01
 Symmetry B2   KE= 6.558031734281D+01
 Symmetry B3   KE= 6.558031734281D+01
 Calling FoFJK, ICntrl=      2127 FMM=F ISym2X=1 I1Cent= 0 IOpClX= 0 NMat=1 NMatS=1 NMatT=0.
 ***** Axes restored to original set *****
 -------------------------------------------------------------------
 Center     Atomic                   Forces (Hartrees/Bohr)
 Number     Number              X              Y              Z
 -------------------------------------------------------------------
      1       14           0.000000000    0.000000000   -0.000000000
      2        6          -0.002151831   -0.002151831   -0.002151831
      3        6           0.002151831    0.002151831   -0.002151831
      4        6           0.002151831   -0.002151831    0.002151831
      5        6          -0.002151831    0.002151831    0.002151831
      6        1          -0.000445246    0.000429917   -0.000445246
      7        1          -0.000445246   -0.000445246    0.000429917
      8        1           0.000429917   -0.000445246   -0.000445246
      9        1           0.000445246    0.000445246    0.000429917
     10        1          -0.000429917    0.000445246   -0.000445246
     11        1           0.000445246   -0.000429917   -0.000445246
     12        1           0.000445246    0.000429917    0.000445246
     13        1           0.000445246   -0.000445246   -0.000429917
     14        1          -0.000429917   -0.000445246    0.000445246
     15        1          -0.000445246    0.000445246   -0.000429917
     16        1           0.000429917    0.000445246    0.000445246
     17        1          -0.000445246   -0.000429917    0.000445246
 -------------------------------------------------------------------
 Cartesian Forces:  Max     0.002151831 RMS     0.001107376

 GradGradGradGradGradGradGradGradGradGradGradGradGradGradGradGradGradGrad
 Berny optimization.
 FormGI is forming the generalized inverse of G from B-inverse, IUseBI=4.
 Internal  Forces:  Max     0.004524819 RMS     0.001041066
 Search for a local minimum.
 Step number   1 out of a maximum of   92
 All quantities printed in internal units (Hartrees-Bohrs-Radians)
 Mixed Optimization -- RFO/linear search
 Second derivative matrix not updated -- first step.
 ITU=  0
     Eigenvalues ---    0.00797   0.00797   0.00797   0.00797   0.05197
     Eigenvalues ---    0.05197   0.05197   0.05778   0.05778   0.05778
     Eigenvalues ---    0.05778   0.05778   0.05778   0.05778   0.05778
     Eigenvalues ---    0.14627   0.14627   0.16000   0.16000   0.16000
     Eigenvalues ---    0.16000   0.16000   0.16000   0.16000   0.16000
     Eigenvalues ---    0.16000   0.16000   0.16000   0.16000   0.19711
     Eigenvalues ---    0.19711   0.19711   0.19711   0.34474   0.34474
     Eigenvalues ---    0.34474   0.34474   0.34474   0.34474   0.34474
     Eigenvalues ---    0.34474   0.34474   0.34474   0.34474   0.34474
 RFO step:  Lambda=-4.34796299D-04 EMin= 7.96646347D-03
 Linear search not attempted -- first point.
 Iteration  1 RMS(Cart)=  0.01037464 RMS(Int)=  0.00000004
 Iteration  2 RMS(Cart)=  0.00000005 RMS(Int)=  0.00000000
 ClnCor:  largest displacement from symmetrization is 1.36D-08 for atom    10.
 Variable       Old X    -DE/DX   Delta X   Delta X   Delta X     New X
                                 (Linear)    (Quad)   (Total)
    R1        3.58635  -0.00452   0.00000  -0.02291  -0.02291   3.56344
    R2        3.58635  -0.00452   0.00000  -0.02291  -0.02291   3.56344
    R3        3.58635  -0.00452   0.00000  -0.02291  -0.02291   3.56344
    R4        3.58635  -0.00452   0.00000  -0.02291  -0.02291   3.56344
    R5        2.06537  -0.00076   0.00000  -0.00221  -0.00221   2.06316
    R6        2.06537  -0.00076   0.00000  -0.00221  -0.00221   2.06316
    R7        2.06537  -0.00076   0.00000  -0.00221  -0.00221   2.06316
    R8        2.06537  -0.00076   0.00000  -0.00221  -0.00221   2.06316
    R9        2.06537  -0.00076   0.00000  -0.00221  -0.00221   2.06316
   R10        2.06537  -0.00076   0.00000  -0.00221  -0.00221   2.06316
   R11        2.06537  -0.00076   0.00000  -0.00221  -0.00221   2.06316
   R12        2.06537  -0.00076   0.00000  -0.00221  -0.00221   2.06316
   R13        2.06537  -0.00076   0.00000  -0.00221  -0.00221   2.06316
   R14        2.06537  -0.00076   0.00000  -0.00221  -0.00221   2.06316
   R15        2.06537  -0.00076   0.00000  -0.00221  -0.00221   2.06316
   R16        2.06537  -0.00076   0.00000  -0.00221  -0.00221   2.06316
    A1        1.91063  -0.00000   0.00000  -0.00000   0.00000   1.91063
    A2        1.91063   0.00000   0.00000   0.00000  -0.00000   1.91063
    A3        1.91063   0.00000   0.00000   0.00000   0.00000   1.91063
    A4        1.91063  -0.00000   0.00000  -0.00000   0.00000   1.91063
    A5        1.91063   0.00000   0.00000   0.00000  -0.00000   1.91063
    A6        1.91063  -0.00000   0.00000   0.00000   0.00000   1.91063
    A7        1.94065   0.00001   0.00000   0.00006   0.00006   1.94071
    A8        1.94065   0.00001   0.00000   0.00006   0.00006   1.94071
    A9        1.94065   0.00001   0.00000   0.00006   0.00006   1.94071
   A10        1.87969  -0.00001   0.00000  -0.00007  -0.00007   1.87962
   A11        1.87969  -0.00001   0.00000  -0.00007  -0.00007   1.87962
   A12        1.87969  -0.00001   0.00000  -0.00007  -0.00007   1.87962
   A13        1.94065   0.00001   0.00000   0.00006   0.00006   1.94071
   A14        1.94065   0.00001   0.00000   0.00006   0.00006   1.94071
   A15        1.94065   0.00001   0.00000   0.00006   0.00006   1.94071
   A16        1.87969  -0.00001   0.00000  -0.00007  -0.00007   1.87962
   A17        1.87969  -0.00001   0.00000  -0.00007  -0.00007   1.87962
   A18        1.87969  -0.00001   0.00000  -0.00007  -0.00007   1.87962
   A19        1.94065   0.00001   0.00000   0.00006   0.00006   1.94071
   A20        1.94065   0.00001   0.00000   0.00006   0.00006   1.94071
   A21        1.94065   0.00001   0.00000   0.00006   0.00006   1.94071
   A22        1.87969  -0.00001   0.00000  -0.00007  -0.00007   1.87962
   A23        1.87969  -0.00001   0.00000  -0.00007  -0.00007   1.87962
   A24        1.87969  -0.00001   0.00000  -0.00007  -0.00007   1.87962
   A25        1.94065   0.00001   0.00000   0.00006   0.00006   1.94071
   A26        1.94065   0.00001   0.00000   0.00006   0.00006   1.94071
   A27        1.94065   0.00001   0.00000   0.00006   0.00006   1.94071
   A28        1.87969  -0.00001   0.00000  -0.00007  -0.00007   1.87962
   A29        1.87969  -0.00001   0.00000  -0.00007  -0.00007   1.87962
   A30        1.87969  -0.00001   0.00000  -0.00007  -0.00007   1.87962
    D1        1.04720   0.00000   0.00000   0.00000  -0.00000   1.04720
    D2        3.14159   0.00000   0.00000   0.00000   0.00000   3.14159
    D3       -1.04720   0.00000   0.00000   0.00000  -0.00000  -1.04720
    D4        3.14159  -0.00000   0.00000   0.00000   0.00000   3.14159
    D5       -1.04720  -0.00000   0.00000   0.00000  -0.00000  -1.04720
    D6        1.04720  -0.00000   0.00000   0.00000   0.00000   1.04720
    D7       -1.04720  -0.00000   0.00000   0.00000   0.00000  -1.04720
    D8        1.04720  -0.00000   0.00000   0.00000  -0.00000   1.04720
    D9        3.14159  -0.00000   0.00000   0.00000   0.00000   3.14159
   D10        3.14159  -0.00000   0.00000  -0.00000  -0.00000   3.14159
   D11       -1.04720  -0.00000   0.00000  -0.00000   0.00000  -1.04720
   D12        1.04720  -0.00000   0.00000  -0.00000   0.00000   1.04720
   D13        1.04720   0.00000   0.00000  -0.00000   0.00000   1.04720
   D14        3.14159  -0.00000   0.00000  -0.00000   0.00000   3.14159
   D15       -1.04720   0.00000   0.00000  -0.00000   0.00000  -1.04720
   D16       -1.04720  -0.00000   0.00000  -0.00000  -0.00000  -1.04720
   D17        1.04720  -0.00000   0.00000  -0.00000   0.00000   1.04720
   D18        3.14159  -0.00000   0.00000  -0.00000   0.00000   3.14159
   D19        3.14159   0.00000   0.00000   0.00000   0.00000   3.14159
   D20       -1.04720   0.00000   0.00000   0.00000  -0.00000  -1.04720
   D21        1.04720   0.00000   0.00000  -0.00000   0.00000   1.04720
   D22       -1.04720  -0.00000   0.00000  -0.00000   0.00000  -1.04720
   D23        1.04720  -0.00000   0.00000  -0.00000  -0.00000   1.04720
   D24        3.14159  -0.00000   0.00000  -0.00000   0.00000   3.14159
   D25        1.04720   0.00000   0.00000  -0.00000   0.00000   1.04720
   D26        3.14159   0.00000   0.00000  -0.00000   0.00000   3.14159
   D27       -1.04720  -0.00000   0.00000  -0.00000   0.00000  -1.04720
   D28        1.04720  -0.00000   0.00000  -0.00000   0.00000   1.04720
   D29        3.14159  -0.00000   0.00000  -0.00000   0.00000   3.14159
   D30       -1.04720  -0.00000   0.00000  -0.00000   0.00000  -1.04720
   D31       -1.04720   0.00000   0.00000  -0.00000   0.00000  -1.04720
   D32        1.04720   0.00000   0.00000   0.00000   0.00000   1.04720
   D33        3.14159   0.00000   0.00000   0.00000   0.00000   3.14159
   D34       -3.14159  -0.00000   0.00000  -0.00000  -0.00000   3.14159
   D35       -1.04720   0.00000   0.00000   0.00000   0.00000  -1.04720
   D36        1.04720   0.00000   0.00000  -0.00000   0.00000   1.04720
         Item               Value     Threshold  Converged?
 Maximum Force            0.004525     0.000450     NO 
 RMS     Force            0.001041     0.000300     NO 
 Maximum Displacement     0.014476     0.001800     NO 
 RMS     Displacement     0.010375     0.001200     NO 
 Predicted change in Energy=-2.178682D-04
 GradGradGradGradGradGradGradGradGradGradGradGradGradGradGradGradGradGrad

                          Input orientation:                          
 ---------------------------------------------------------------------
 Center     Atomic      Atomic             Coordinates (Angstroms)
 Number     Number       Type             X           Y           Z
 ---------------------------------------------------------------------
      1         14           0        0.000000   -0.000000   -0.000000
      2          6           0        1.088705    1.088705    1.088705
      3          6           0       -1.088705   -1.088705    1.088705
      4          6           0       -1.088705    1.088705   -1.088705
      5          6           0        1.088705   -1.088705   -1.088705
      6          1           0        1.732163    0.485458    1.732163
      7          1           0        1.732163    1.732163    0.485458
      8          1           0        0.485458    1.732163    1.732163
      9          1           0       -1.732163   -1.732163    0.485458
     10          1           0       -0.485458   -1.732163    1.732163
     11          1           0       -1.732163   -0.485458    1.732163
     12          1           0       -1.732163    0.485458   -1.732163
     13          1           0       -1.732163    1.732163   -0.485458
     14          1           0       -0.485458    1.732163   -1.732163
     15          1           0        1.732163   -1.732163   -0.485458
     16          1           0        0.485458   -1.732163   -1.732163
     17          1           0        1.732163   -0.485458   -1.732163
 ---------------------------------------------------------------------
                    Distance matrix (angstroms):
                    1          2          3          4          5
     1  Si   0.000000
     2  C    1.885692   0.000000
     3  C    1.885692   3.079322   0.000000
     4  C    1.885692   3.079322   3.079322   0.000000
     5  C    1.885692   3.079322   3.079322   3.079322   0.000000
     6  H    2.497288   1.091780   3.293831   4.034662   3.293831
     7  H    2.497288   1.091780   4.034662   3.293831   3.293831
     8  H    2.497288   1.091780   3.293831   3.293831   4.034662
     9  H    2.497288   4.034662   1.091780   3.293831   3.293831
    10  H    2.497288   3.293831   1.091780   4.034662   3.293831
    11  H    2.497288   3.293831   1.091780   3.293831   4.034662
    12  H    2.497288   4.034662   3.293831   1.091780   3.293831
    13  H    2.497288   3.293831   3.293831   1.091780   4.034662
    14  H    2.497288   3.293831   4.034662   1.091780   3.293831
    15  H    2.497288   3.293831   3.293831   4.034662   1.091780
    16  H    2.497288   4.034662   3.293831   3.293831   1.091780
    17  H    2.497288   3.293831   4.034662   3.293831   1.091780
                    6          7          8          9         10
     6  H    0.000000
     7  H    1.763107   0.000000
     8  H    1.763107   1.763107   0.000000
     9  H    4.298100   4.899296   4.298100   0.000000
    10  H    3.136189   4.298100   3.597809   1.763107   0.000000
    11  H    3.597809   4.298100   3.136189   1.763107   1.763107
    12  H    4.899296   4.298100   4.298100   3.136189   4.298100
    13  H    4.298100   3.597809   3.136189   3.597809   4.298100
    14  H    4.298100   3.136189   3.597809   4.298100   4.899296
    15  H    3.136189   3.597809   4.298100   3.597809   3.136189
    16  H    4.298100   4.298100   4.899296   3.136189   3.597809
    17  H    3.597809   3.136189   4.298100   4.298100   4.298100
                   11         12         13         14         15
    11  H    0.000000
    12  H    3.597809   0.000000
    13  H    3.136189   1.763107   0.000000
    14  H    4.298100   1.763107   1.763107   0.000000
    15  H    4.298100   4.298100   4.899296   4.298100   0.000000
    16  H    4.298100   3.136189   4.298100   3.597809   1.763107
    17  H    4.899296   3.597809   4.298100   3.136189   1.763107
                   16         17
    16  H    0.000000
    17  H    1.763107   0.000000
 Stoichiometry    C4H12Si
 Framework group  TD[O(Si),4C3(C),6SGD(H2)]
 Deg. of freedom     3
 Full point group                 TD      NOp  24
 Largest Abelian subgroup         D2      NOp   4
 Largest concise Abelian subgroup D2      NOp   4
                         Standard orientation:                         
 ---------------------------------------------------------------------
 Center     Atomic      Atomic             Coordinates (Angstroms)
 Number     Number       Type             X           Y           Z
 ---------------------------------------------------------------------
      1         14           0        0.000000    0.000000    0.000000
      2          6           0        1.088705    1.088705    1.088705
      3          6           0       -1.088705   -1.088705    1.088705
      4          6           0       -1.088705    1.088705   -1.088705
      5          6           0        1.088705   -1.088705   -1.088705
      6          1           0        1.732163    0.485458    1.732163
      7          1           0        1.732163    1.732163    0.485458
      8          1           0        0.485458    1.732163    1.732163
      9          1           0       -1.732163   -1.732163    0.485458
     10          1           0       -0.485458   -1.732163    1.732163
     11          1           0       -1.732163   -0.485458    1.732163
     12          1           0       -1.732163    0.485458   -1.732163
     13          1           0       -1.732163    1.732163   -0.485458
     14          1           0       -0.485458    1.732163   -1.732163
     15          1           0        1.732163   -1.732163   -0.485458
     16          1           0        0.485458   -1.732163   -1.732163
     17          1           0        1.732163   -0.485458   -1.732163
 ---------------------------------------------------------------------
 Rotational constants (GHZ):           3.0802894           3.0802894           3.0802894
 Basis read from rwf:  (5D, 7F)
 There are    92 symmetry adapted cartesian basis functions of A   symmetry.
 There are    89 symmetry adapted cartesian basis functions of B1  symmetry.
 There are    89 symmetry adapted cartesian basis functions of B2  symmetry.
 There are    89 symmetry adapted cartesian basis functions of B3  symmetry.
 There are    82 symmetry adapted basis functions of A   symmetry.
 There are    80 symmetry adapted basis functions of B1  symmetry.
 There are    80 symmetry adapted basis functions of B2  symmetry.
 There are    80 symmetry adapted basis functions of B3  symmetry.
   322 basis functions,   490 primitive gaussians,   359 cartesian basis functions
    25 alpha electrons       25 beta electrons
       nuclear repulsion energy       245.4796887371 Hartrees.
 NAtoms=   17 NActive=   17 NUniq=    3 SFac= 4.00D+00 NAtFMM=   60 NAOKFM=F Big=F
 Integral buffers will be    131072 words long.
 Raffenetti 2 integral format.
 Two-electron integral symmetry is turned on.
 One-electron integrals computed using PRISM.
 NBasis=   322 RedAO= T EigKep=  1.26D-03  NBF=    82    80    80    80
 NBsUse=   322 1.00D-06 EigRej= -1.00D+00 NBFU=    82    80    80    80
 Initial guess from the checkpoint file:  "/wrk/irikura/Gau-5932.chk"
 B after Tr=     0.000000    0.000000    0.000000
         Rot=    1.000000    0.000000   -0.000000    0.000000 Ang=   0.00 deg.
 Initial guess orbital symmetries:
       Occupied  (A1) (T2) (T2) (T2) (A1) (A1) (T2) (T2) (T2) (A1)
                 (T2) (T2) (T2) (A1) (T2) (T2) (T2) (E) (E) (T1)
                 (T1) (T1) (T2) (T2) (T2)
       Virtual   (A1) (T2) (T2) (T2) (T2) (T2) (T2) (E) (E) (A1)
                 (T1) (T1) (T1) (T2) (T2) (T2) (E) (E) (T2) (T2)
                 (T2) (T2) (T2) (T2) (A1) (T1) (T1) (T1) (T2) (T2)
                 (T2) (A1) (T1) (T1) (T1) (E) (E) (T2) (T2) (T2)
                 (T2) (T2) (T2) (A1) (E) (E) (A1) (T2) (T2) (T2)
                 (T1) (T1) (T1) (T2) (T2) (T2) (E) (E) (T2) (T2)
                 (T2) (T1) (T1) (T1) (A2) (T2) (T2) (T2) (T1) (T1)
                 (T1) (E) (E) (T2) (T2) (T2) (A1) (T2) (T2) (T2)
                 (T1) (T1) (T1) (E) (E) (T2) (T2) (T2) (T1) (T1)
                 (T1) (T2) (T2) (T2) (A1) (E) (E) (A1) (T2) (T2)
                 (T2) (T2) (T2) (T2) (T1) (T1) (T1) (E) (E) (T2)
                 (T2) (T2) (T1) (T1) (T1) (E) (E) (A1) (T2) (T2)
                 (T2) (T2) (T2) (T2) (T2) (T2) (T2) (A1) (T1) (T1)
                 (T1) (A1) (T2) (T2) (T2) (T2) (T2) (T2) (A1) (E)
                 (E) (T2) (T2) (T2) (T1) (T1) (T1) (E) (E) (T2)
                 (T2) (T2) (T1) (T1) (T1) (A1) (A2) (T1) (T1) (T1)
                 (T2) (T2) (T2) (E) (E) (T2) (T2) (T2) (T1) (T1)
                 (T1) (E) (E) (T2) (T2) (T2) (E) (E) (T1) (T1)
                 (T1) (A2) (T1) (T1) (T1) (T2) (T2) (T2) (T1) (T1)
                 (T1) (T2) (T2) (T2) (E) (E) (E) (E) (T2) (T2)
                 (T2) (T1) (T1) (T1) (A1) (T2) (T2) (T2) (A1) (T2)
                 (T2) (T2) (E) (E) (T1) (T1) (T1) (T2) (T2) (T2)
                 (A1) (T1) (T1) (T1) (E) (E) (T2) (T2) (T2) (T1)
                 (T1) (T1) (A2) (T2) (T2) (T2) (E) (E) (T2) (T2)
                 (T2) (A1) (T1) (T1) (T1) (T2) (T2) (T2) (A1) (T2)
                 (T2) (T2) (T1) (T1) (T1) (E) (E) (T2) (T2) (T2)
                 (T2) (T2) (T2) (A1) (T1) (T1) (T1) (E) (E) (T2)
                 (T2) (T2) (A2) (T1) (T1) (T1) (T2) (T2) (T2) (T1)
                 (T1) (T1) (A1) (E) (E) (T2) (T2) (T2) (E) (E)
                 (T2) (T2) (T2) (T1) (T1) (T1) (A1)
 Requested convergence on RMS density matrix=1.00D-08 within 128 cycles.
 Requested convergence on MAX density matrix=1.00D-06.
 Requested convergence on             energy=1.00D-06.
 No special actions if energy rises.
 SCF Done:  E(RB3LYP) =  -449.303432166     A.U. after    6 cycles
            NFock=  6  Conv=0.56D-08     -V/T= 2.0023
 Calling FoFJK, ICntrl=      2127 FMM=F ISym2X=1 I1Cent= 0 IOpClX= 0 NMat=1 NMatS=1 NMatT=0.
 ***** Axes restored to original set *****
 -------------------------------------------------------------------
 Center     Atomic                   Forces (Hartrees/Bohr)
 Number     Number              X              Y              Z
 -------------------------------------------------------------------
      1       14           0.000000000    0.000000000    0.000000000
      2        6          -0.000530826   -0.000530826   -0.000530826
      3        6           0.000530826    0.000530826   -0.000530826
      4        6           0.000530826   -0.000530826    0.000530826
      5        6          -0.000530826    0.000530826    0.000530826
      6        1           0.000115044    0.000144113    0.000115044
      7        1           0.000115044    0.000115044    0.000144113
      8        1           0.000144113    0.000115044    0.000115044
      9        1          -0.000115044   -0.000115044    0.000144113
     10        1          -0.000144113   -0.000115044    0.000115044
     11        1          -0.000115044   -0.000144113    0.000115044
     12        1          -0.000115044    0.000144113   -0.000115044
     13        1          -0.000115044    0.000115044   -0.000144113
     14        1          -0.000144113    0.000115044   -0.000115044
     15        1           0.000115044   -0.000115044   -0.000144113
     16        1           0.000144113   -0.000115044   -0.000115044
     17        1           0.000115044   -0.000144113   -0.000115044
 -------------------------------------------------------------------
 Cartesian Forces:  Max     0.000530826 RMS     0.000278236

 GradGradGradGradGradGradGradGradGradGradGradGradGradGradGradGradGradGrad
 Berny optimization.
 Using GEDIIS/GDIIS optimizer.
 FormGI is forming the generalized inverse of G from B-inverse, IUseBI=4.
 Internal  Forces:  Max     0.000271283 RMS     0.000130258
 Search for a local minimum.
 Step number   2 out of a maximum of   92
 All quantities printed in internal units (Hartrees-Bohrs-Radians)
 Mixed Optimization -- En-DIIS/RFO-DIIS
 Update second derivatives using D2CorX and points    1    2
 DE= -2.31D-04 DEPred=-2.18D-04 R= 1.06D+00
 TightC=F SS=  1.41D+00  RLast= 4.64D-02 DXNew= 5.0454D-01 1.3934D-01
 Trust test= 1.06D+00 RLast= 4.64D-02 DXMaxT set to 3.00D-01
 ITU=  1  0
 Use linear search instead of GDIIS.
     Eigenvalues ---    0.00797   0.00797   0.00797   0.00797   0.05197
     Eigenvalues ---    0.05197   0.05197   0.05777   0.05777   0.05777
     Eigenvalues ---    0.05777   0.05777   0.05777   0.05777   0.05777
     Eigenvalues ---    0.14627   0.14627   0.14950   0.16000   0.16000
     Eigenvalues ---    0.16000   0.16000   0.16000   0.16000   0.16000
     Eigenvalues ---    0.16000   0.16000   0.16000   0.16000   0.19711
     Eigenvalues ---    0.19711   0.19711   0.19764   0.34474   0.34474
     Eigenvalues ---    0.34474   0.34474   0.34474   0.34474   0.34474
     Eigenvalues ---    0.34474   0.34474   0.34474   0.34474   0.34865
 RFO step:  Lambda=-7.72306326D-06 EMin= 7.96646347D-03
 Quartic linear search produced a step of  0.05604.
 Iteration  1 RMS(Cart)=  0.00060966 RMS(Int)=  0.00000086
 Iteration  2 RMS(Cart)=  0.00000094 RMS(Int)=  0.00000047
 ClnCor:  largest displacement from symmetrization is 5.61D-09 for atom    13.
 Variable       Old X    -DE/DX   Delta X   Delta X   Delta X     New X
                                 (Linear)    (Quad)   (Total)
    R1        3.56344  -0.00027  -0.00128  -0.00054  -0.00182   3.56162
    R2        3.56344  -0.00027  -0.00128  -0.00054  -0.00182   3.56162
    R3        3.56344  -0.00027  -0.00128  -0.00054  -0.00182   3.56162
    R4        3.56344  -0.00027  -0.00128  -0.00054  -0.00182   3.56162
    R5        2.06316   0.00006  -0.00012   0.00026   0.00013   2.06330
    R6        2.06316   0.00006  -0.00012   0.00026   0.00013   2.06330
    R7        2.06316   0.00006  -0.00012   0.00026   0.00013   2.06330
    R8        2.06316   0.00006  -0.00012   0.00026   0.00013   2.06330
    R9        2.06316   0.00006  -0.00012   0.00026   0.00013   2.06330
   R10        2.06316   0.00006  -0.00012   0.00026   0.00013   2.06330
   R11        2.06316   0.00006  -0.00012   0.00026   0.00013   2.06330
   R12        2.06316   0.00006  -0.00012   0.00026   0.00013   2.06330
   R13        2.06316   0.00006  -0.00012   0.00026   0.00013   2.06330
   R14        2.06316   0.00006  -0.00012   0.00026   0.00013   2.06330
   R15        2.06316   0.00006  -0.00012   0.00026   0.00013   2.06330
   R16        2.06316   0.00006  -0.00012   0.00026   0.00013   2.06330
    A1        1.91063  -0.00000   0.00000   0.00000   0.00000   1.91063
    A2        1.91063   0.00000   0.00000   0.00000   0.00000   1.91063
    A3        1.91063   0.00000   0.00000  -0.00000   0.00000   1.91063
    A4        1.91063   0.00000   0.00000   0.00000   0.00000   1.91063
    A5        1.91063   0.00000   0.00000  -0.00000   0.00000   1.91063
    A6        1.91063  -0.00000   0.00000  -0.00000   0.00000   1.91063
    A7        1.94071   0.00020   0.00000   0.00134   0.00134   1.94205
    A8        1.94071   0.00020   0.00000   0.00134   0.00134   1.94205
    A9        1.94071   0.00020   0.00000   0.00134   0.00134   1.94205
   A10        1.87962  -0.00022  -0.00000  -0.00142  -0.00143   1.87819
   A11        1.87962  -0.00022  -0.00000  -0.00142  -0.00143   1.87819
   A12        1.87962  -0.00022  -0.00000  -0.00142  -0.00143   1.87819
   A13        1.94071   0.00020   0.00000   0.00134   0.00134   1.94205
   A14        1.94071   0.00020   0.00000   0.00134   0.00134   1.94205
   A15        1.94071   0.00020   0.00000   0.00134   0.00134   1.94205
   A16        1.87962  -0.00022  -0.00000  -0.00142  -0.00143   1.87819
   A17        1.87962  -0.00022  -0.00000  -0.00142  -0.00143   1.87819
   A18        1.87962  -0.00022  -0.00000  -0.00142  -0.00143   1.87819
   A19        1.94071   0.00020   0.00000   0.00134   0.00134   1.94205
   A20        1.94071   0.00020   0.00000   0.00134   0.00134   1.94205
   A21        1.94071   0.00020   0.00000   0.00134   0.00134   1.94205
   A22        1.87962  -0.00022  -0.00000  -0.00142  -0.00143   1.87819
   A23        1.87962  -0.00022  -0.00000  -0.00142  -0.00143   1.87819
   A24        1.87962  -0.00022  -0.00000  -0.00142  -0.00143   1.87819
   A25        1.94071   0.00020   0.00000   0.00134   0.00134   1.94205
   A26        1.94071   0.00020   0.00000   0.00134   0.00134   1.94205
   A27        1.94071   0.00020   0.00000   0.00134   0.00134   1.94205
   A28        1.87962  -0.00022  -0.00000  -0.00142  -0.00143   1.87819
   A29        1.87962  -0.00022  -0.00000  -0.00142  -0.00143   1.87819
   A30        1.87962  -0.00022  -0.00000  -0.00142  -0.00143   1.87819
    D1        1.04720   0.00000  -0.00000  -0.00000   0.00000   1.04720
    D2        3.14159  -0.00000   0.00000  -0.00000  -0.00000   3.14159
[...]
 1\1\GINC-GAMBA\Freq\RB3LYP\Gen\C4H12Si1\IRIKURA\17-Jun-2022\0\\#N Geom
 =AllCheck Guess=TCheck SCRF=Check GenChk RB3LYP/ChkBas Freq\\tetrameth
 ylsilane, B3LYP/pcseg-2\\0,1\Si,0.,0.,0.\C,1.0887048393,1.0887048393,1
 .0887048393\C,-1.0887048393,-1.0887048393,1.0887048393\C,-1.0887048393
 ,1.0887048393,-1.0887048393\C,1.0887048393,-1.0887048393,-1.0887048393
 \H,1.7321628099,0.4854577939,1.7321628099\H,1.7321628099,1.7321628099,
 0.4854577939\H,0.4854577939,1.7321628099,1.7321628099\H,-1.7321628099,
 -1.7321628099,0.4854577939\H,-0.4854577939,-1.7321628099,1.7321628099\
 H,-1.7321628099,-0.4854577939,1.7321628099\H,-1.7321628099,0.485457793
 9,-1.7321628099\H,-1.7321628099,1.7321628099,-0.4854577939\H,-0.485457
 7939,1.7321628099,-1.7321628099\H,1.7321628099,-1.7321628099,-0.485457
 7939\H,0.4854577939,-1.7321628099,-1.7321628099\H,1.7321628099,-0.4854
 577939,-1.7321628099\\Version=ES64L-G16RevB.01\State=1-A1\HF=-449.3034
 322\RMSD=1.873e-09\RMSF=2.782e-04\ZeroPoint=0.1468532\Thermal=0.156152
 6\Dipole=0.,0.,0.\DipoleDeriv=1.4257199,0.,0.,0.,1.4257199,0.,0.,0.,1.
 4257199,-0.3511568,-0.0949755,-0.0949755,-0.0949755,-0.3511568,-0.0949
 755,-0.0949755,-0.0949755,-0.3511568,-0.3511568,-0.0949755,0.0949755,-
 0.0949755,-0.3511568,0.0949755,0.0949755,0.0949755,-0.3511568,-0.35115
 68,0.0949755,-0.0949755,0.0949755,-0.3511568,0.0949755,-0.0949755,0.09
 49755,-0.3511568,-0.3511568,0.0949755,0.0949755,0.0949755,-0.3511568,-
 0.0949755,0.0949755,-0.0949755,-0.3511568,-0.0172791,0.0646168,-0.0886
 935,0.0515623,0.029285,0.0515623,-0.0886935,0.0646168,-0.0172791,-0.01
 72791,-0.0886935,0.0646168,-0.0886935,-0.0172791,0.0646168,0.0515623,0
 .0515623,0.029285,0.029285,0.0515623,0.0515623,0.0646168,-0.0172791,-0
 .0886935,0.0646168,-0.0886935,-0.0172791,-0.0172791,-0.0886935,-0.0646
 168,-0.0886935,-0.0172791,-0.0646168,-0.0515623,-0.0515623,0.029285,0.
 029285,0.0515623,-0.0515623,0.0646168,-0.0172791,0.0886935,-0.0646168,
 0.0886935,-0.0172791,-0.0172791,0.0646168,0.0886935,0.0515623,0.029285
 ,-0.0515623,0.0886935,-0.0646168,-0.0172791,-0.0172791,-0.0646168,-0.0
 886935,-0.0515623,0.029285,-0.0515623,-0.0886935,-0.0646168,-0.0172791
 ,-0.0172791,0.0886935,0.0646168,0.0886935,-0.0172791,-0.0646168,0.0515
 623,-0.0515623,0.029285,0.029285,-0.0515623,0.0515623,-0.0646168,-0.01
 72791,0.0886935,0.0646168,0.0886935,-0.0172791,-0.0172791,0.0886935,-0
 .0646168,0.0886935,-0.0172791,0.0646168,-0.0515623,0.0515623,0.029285,
 0.029285,-0.0515623,-0.0515623,-0.0646168,-0.0172791,-0.0886935,-0.064
 6168,-0.0886935,-0.0172791,-0.0172791,-0.0646168,0.0886935,-0.0515623,
 0.029285,0.0515623,0.0886935,0.0646168,-0.0172791\Polar=76.2877843,0.,
 76.2877843,0.,0.,76.2877842\Quadrupole=0.,0.,0.,0.,0.,0.\PG=TD [O(Si1)
 ,4C3(C1),6SGD(H2)]\NImag=0\\0.33290262,0.,0.33290262,0.,0.,0.33290262,
 -0.07526328,-0.03374959,-0.03374959,0.46338072,-0.03374959,-0.07526328
 ,-0.03374959,-0.04336227,0.46338072,-0.03374959,-0.03374959,-0.0752632
 8,-0.04336226,-0.04336226,0.46338072,-0.07526328,-0.03374959,0.0337495
 9,-0.00401737,-0.00685016,0.00693067,0.46338072,-0.03374959,-0.0752632
 8,0.03374959,-0.00685016,-0.00401738,0.00693067,-0.04336227,0.46338072
 ,0.03374959,0.03374959,-0.07526328,-0.00693067,-0.00693067,0.00882115,
 0.04336226,0.04336226,0.46338072,-0.07526328,0.03374959,-0.03374959,-0
 .00401738,0.00693067,-0.00685016,0.00882116,-0.00693067,0.00693067,0.4
 6338072,0.03374959,-0.07526328,0.03374959,-0.00693067,0.00882115,-0.00
 693067,0.00693067,-0.00401738,0.00685016,0.04336227,0.46338072,-0.0337
 4959,0.03374959,-0.07526328,-0.00685016,0.00693067,-0.00401738,-0.0069
 3067,0.00685016,-0.00401738,-0.04336226,0.04336226,0.46338072,-0.07526
 328,0.03374959,0.03374959,0.00882116,-0.00693067,-0.00693067,-0.004017
 38,0.00693067,0.00685016,-0.00401737,0.00685016,0.00693067,0.46338072,
 0.03374959,-0.07526328,-0.03374959,0.00693067,-0.00401738,-0.00685016,
 -0.00693067,0.00882115,0.00693067,0.00685016,-0.00401738,-0.00693067,0
 .04336227,0.46338072,0.03374959,-0.03374959,-0.07526328,0.00693067,-0.
 00685016,-0.00401738,0.00685016,-0.00693067,-0.00401738,-0.00693067,0.
 00693067,0.00882115,0.04336226,-0.04336226,0.46338072,-0.00761484,0.00
 937012,-0.00573008,-0.13627569,0.09341626,-0.09368179,0.00060926,-0.00
 001750,0.00074306,-0.00131159,-0.00252298,-0.00164035,0.00044113,-0.00
 018291,0.00059472,0.14283728,-0.00724784,0.00726731,-0.00724784,0.0824
 2127,-0.11452233,0.08242127,0.00091163,0.00035834,0.00070327,-0.001887
 67,-0.00202442,-0.00188767,0.00070327,0.00035834,0.00091163,-0.0969647
 0,0.13066635,-0.00573008,0.00937012,-0.00761484,-0.09368179,0.09341626
 ,-0.13627569,0.00059472,-0.00018291,0.00044113,-0.00164035,-0.00252297
 ,-0.00131159,0.00074306,-0.00001751,0.00060926,0.09922834,-0.09696470,
 0.14283728,-0.00761484,-0.00573008,0.00937012,-0.13627569,-0.09368179,
 0.09341626,-0.00131159,-0.00164035,-0.00252297,0.00060926,0.00074306,-
 0.00001751,0.00044113,0.00059472,-0.00018291,0.01212283,0.01174513,-0.
 01108498,0.14283728,-0.00573008,-0.00761484,0.00937012,-0.09368179,-0.
 13627569,0.09341626,-0.00164035,-0.00131159,-0.00252298,0.00059472,0.0
 0044113,-0.00018291,0.00074306,0.00060926,-0.00001750,-0.01108498,-0.0
 1118935,0.00835096,0.09922834,0.14283728,-0.00724784,-0.00724784,0.007
 26731,0.08242127,0.08242127,-0.11452233,-0.00188767,-0.00188767,-0.002
 02442,0.00091164,0.00070327,0.00035834,0.00070327,0.00091163,0.0003583
 4,0.01174513,0.01070436,-0.01118935,-0.09696470,-0.09696470,0.13066635
 ,0.00726731,-0.00724784,-0.00724784,-0.11452233,0.08242127,0.08242127,
 0.00035834,0.00091163,0.00070327,0.00035834,0.00070327,0.00091163,-0.0
 0202443,-0.00188767,-0.00188767,-0.01118935,0.01070436,0.01174513,-0.0
 1118935,0.01174513,0.01070436,0.13066635,0.00937012,-0.00761484,-0.005
 73008,0.09341626,-0.13627569,-0.09368179,-0.00001751,0.00060926,0.0007
 4306,-0.00018291,0.00044113,0.00059472,-0.00252297,-0.00131159,-0.0016
 4035,0.00835096,-0.01118935,-0.01108498,-0.01108498,0.01212283,0.01174
 513,-0.09696470,0.14283728,0.00937012,-0.00573008,-0.00761484,0.093416
 26,-0.09368179,-0.13627569,-0.00018291,0.00059472,0.00044113,-0.000017
 50,0.00074306,0.00060926,-0.00252297,-0.00164035,-0.00131159,-0.011084
 98,0.01174513,0.01212283,0.00835096,-0.01108498,-0.01118935,-0.0969647
 0,0.09922834,0.14283728,-0.00761484,-0.00573008,-0.00937012,-0.0013115
 9,-0.00164035,0.00252297,-0.13627569,-0.09368179,-0.09341626,0.0004411
 3,0.00059472,0.00018291,0.00060926,0.00074306,0.00001751,0.00031617,0.
 00032454,0.00019000,-0.00041591,-0.00073741,-0.00067034,0.00014262,-0.
 00005003,-0.00002507,0.14283728,-0.00573008,-0.00761484,-0.00937012,-0
 .00164035,-0.00131159,0.00252298,-0.09368179,-0.13627569,-0.09341626,0
 .00074306,0.00060926,0.00001750,0.00059472,0.00044113,0.00018291,-0.00
 005003,0.00014262,-0.00002507,-0.00073741,-0.00041591,-0.00067034,0.00
 032454,0.00031617,0.00019000,0.09922834,0.14283728,0.00724784,0.007247
 84,0.00726731,0.00188767,0.00188767,-0.00202442,-0.08242127,-0.0824212
 7,-0.11452233,-0.00070327,-0.00091163,0.00035834,-0.00091164,-0.000703
 27,0.00035834,0.00001716,-0.00015496,-0.00007682,0.00067034,0.00067034
 ,0.00070350,-0.00015496,0.00001717,-0.00007682,0.09696470,0.09696470,0
 .13066635,0.00726731,-0.00724784,0.00724784,0.00035834,0.00091163,-0.0
 0070327,-0.11452233,0.08242127,-0.08242127,-0.00202443,-0.00188767,0.0
 0188767,0.00035834,0.00070327,-0.00091163,-0.00026512,-0.00022418,-0.0
 0018867,0.00014262,0.00032454,0.00015496,-0.00001487,0.00004441,0.0000
 3140,-0.01118935,0.01174513,-0.01070436,0.13066635,0.00937012,-0.00761
 484,0.00573008,-0.00001751,0.00060926,-0.00074306,0.09341626,-0.136275
 69,0.09368179,-0.00252297,-0.00131159,0.00164035,-0.00018291,0.0004411
 3,-0.00059472,-0.00060003,-0.00026512,-0.00027036,-0.00005003,0.000316
 17,-0.00001717,0.00004441,0.00005287,0.00013139,-0.01108498,0.01212283
 ,-0.01174513,-0.09696470,0.14283728,-0.00937012,0.00573008,-0.00761484
 ,0.00018291,-0.00059472,0.00044113,-0.09341626,0.09368179,-0.13627569,
 0.00252297,0.00164035,-0.00131159,0.00001750,-0.00074306,0.00060926,0.
 00027036,0.00018868,0.00033445,0.00002507,-0.00019000,-0.00007682,-0.0
 0003140,-0.00013139,-0.00002346,-0.00835096,0.01108498,-0.01118935,0.0
 9696470,-0.09922834,0.14283728,-0.00761484,0.00937012,0.00573008,0.000
 60926,-0.00001750,-0.00074306,-0.13627569,0.09341626,0.09368179,0.0004
 4113,-0.00018291,-0.00059472,-0.00131159,-0.00252298,0.00164035,0.0000
 5288,0.00004441,0.00013139,0.00031617,-0.00005003,-0.00001716,-0.00026
 512,-0.00060003,-0.00027036,0.01212283,-0.01108498,-0.01174513,-0.0111
 8935,0.00835096,0.01108498,0.14283728,-0.00724784,0.00726731,0.0072478
 4,0.00091163,0.00035834,-0.00070327,0.08242127,-0.11452233,-0.08242127
 ,0.00070327,0.00035834,-0.00091163,-0.00188767,-0.00202442,0.00188767,
 0.00004441,-0.00001488,0.00003140,0.00032454,0.00014262,0.00015496,-0.
 00022418,-0.00026512,-0.00018868,0.01174513,-0.01118935,-0.01070436,0.
 01070436,-0.01118935,-0.01174513,-0.09696470,0.13066635,0.00573008,-0.
 00937012,-0.00761484,-0.00059472,0.00018291,0.00044113,0.09368179,-0.0
 9341626,-0.13627569,-0.00074306,0.00001751,0.00060926,0.00164035,0.002
 52297,-0.00131159,-0.00013139,-0.00003140,-0.00002346,-0.00019000,0.00
 002507,-0.00007682,0.00018867,0.00027036,0.00033445,0.01108498,-0.0083
 5096,-0.01118935,-0.01174513,0.01108498,0.01212283,-0.09922834,0.09696
 470,0.14283728,-0.00761484,-0.00937012,-0.00573008,-0.00131159,0.00252
 298,-0.00164035,0.00044113,0.00018291,0.00059472,-0.13627569,-0.093416
 26,-0.09368179,0.00060926,0.00001750,0.00074306,-0.00041591,-0.0006703
 4,-0.00073741,0.00031617,0.00019000,0.00032454,0.00014262,-0.00002507,
 -0.00005003,0.00033445,0.00027036,-0.00018868,-0.00007682,0.00002507,0
 .00019000,-0.00002346,-0.00003140,0.00013139,0.14283728,0.00724784,0.0
 0726731,0.00724784,0.00188767,-0.00202442,0.00188767,-0.00070327,0.000
 35834,-0.00091163,-0.08242127,-0.11452233,-0.08242127,-0.00091163,0.00
 035834,-0.00070327,0.00067034,0.00070350,0.00067034,0.00001717,-0.0000
 7682,-0.00015496,-0.00015496,-0.00007682,0.00001716,-0.00018867,-0.000
 26512,0.00022418,0.00015496,0.00014262,-0.00032454,0.00003140,-0.00001
 487,-0.00004441,0.09696470,0.13066635,-0.00573008,-0.00937012,-0.00761
 484,-0.00164035,0.00252297,-0.00131159,0.00074306,0.00001751,0.0006092
 6,-0.09368179,-0.09341626,-0.13627569,0.00059472,0.00018291,0.00044113
 ,-0.00073741,-0.00067034,-0.00041591,-0.00005003,-0.00002507,0.0001426
 2,0.00032454,0.00019000,0.00031617,0.00027036,0.00060003,-0.00026512,0
 .00001717,0.00005003,0.00031617,-0.00013139,-0.00004441,0.00005287,0.0
 9922834,0.09696470,0.14283728,-0.00761484,0.00573008,0.00937012,0.0006
 0926,-0.00074306,-0.00001751,0.00044113,-0.00059472,-0.00018291,-0.136
 27569,0.09368179,0.09341626,-0.00131159,0.00164035,-0.00252297,0.00031
 617,-0.00001717,-0.00005003,0.00005287,0.00013139,0.00004441,-0.000265
 12,-0.00027036,-0.00060003,-0.00002346,-0.00013139,0.00003140,-0.00007
 682,-0.00019000,-0.00002507,0.00033445,0.00018867,-0.00027036,0.012122
 83,-0.01174513,-0.01108498,0.14283728,0.00573008,-0.00761484,-0.009370
 12,-0.00059472,0.00044113,0.00018291,-0.00074306,0.00060926,0.00001750
 ,0.09368179,-0.13627569,-0.09341626,0.00164035,-0.00131159,0.00252298,
 -0.00019000,-0.00007682,0.00002507,-0.00013139,-0.00002346,-0.00003140
 ,0.00018868,0.00033445,0.00027036,0.00013139,0.00005288,-0.00004441,-0
 .00001716,0.00031617,0.00005003,-0.00027036,-0.00026512,0.00060003,0.0
 1108498,-0.01118935,-0.00835096,-0.09922834,0.14283728,-0.00724784,0.0
 0724784,0.00726731,0.00091164,-0.00070327,0.00035834,0.00070327,-0.000
 91163,0.00035834,0.08242127,-0.08242127,-0.11452233,-0.00188767,0.0018
 8767,-0.00202442,0.00032454,0.00015496,0.00014262,0.00004441,0.0000314
 0,-0.00001487,-0.00022418,-0.00018867,-0.00026512,-0.00003140,-0.00004
 441,-0.00001488,-0.00015496,-0.00032454,0.00014262,0.00018868,0.000224
 18,-0.00026512,0.01174513,-0.01070436,-0.01118935,-0.09696470,0.096964
 70,0.13066635,0.00726731,0.00724784,-0.00724784,0.00035834,-0.00070327
 ,0.00091163,-0.00202443,0.00188767,-0.00188767,-0.11452233,-0.08242127
 ,0.08242127,0.00035834,-0.00091163,0.00070327,0.00014262,0.00015496,0.
 00032454,-0.00026512,-0.00018868,-0.00022418,-0.00001488,0.00003140,0.
 00004441,-0.00007682,0.00001716,0.00015496,0.00070350,0.00067034,-0.00
 067034,-0.00007682,-0.00015496,-0.00001717,-0.01118935,-0.01070436,0.0
 1174513,-0.01118935,-0.01174513,0.01070436,0.13066635,-0.00937012,-0.0
 0761484,0.00573008,0.00018291,0.00044113,-0.00059472,0.00252297,-0.001
 31159,0.00164035,-0.09341626,-0.13627569,0.09368179,0.00001751,0.00060
 926,-0.00074306,0.00002507,-0.00007682,-0.00019000,0.00027036,0.000334
 45,0.00018867,-0.00003140,-0.00002346,-0.00013139,0.00019000,0.0003161
 7,-0.00032454,-0.00067034,-0.00041591,0.00073741,-0.00002507,0.0001426
 2,0.00005003,-0.00835096,-0.01118935,0.01108498,0.01108498,0.01212283,
 -0.01174513,0.09696470,0.14283728,0.00937012,0.00573008,-0.00761484,-0
 .00001750,-0.00074306,0.00060926,-0.00252297,0.00164035,-0.00131159,0.
 09341626,0.09368179,-0.13627569,-0.00018291,-0.00059472,0.00044113,-0.
 00005003,-0.00001716,0.00031617,-0.00060003,-0.00027036,-0.00026512,0.
 00004441,0.00013139,0.00005288,0.00002507,0.00005003,0.00014262,0.0006
 7034,0.00073741,-0.00041591,-0.00019000,-0.00032454,0.00031617,-0.0110
 8498,-0.01174513,0.01212283,0.00835096,0.01108498,-0.01118935,-0.09696
 470,-0.09922834,0.14283728,-0.00761484,0.00573008,-0.00937012,0.000441
 13,-0.00059472,0.00018291,0.00060926,-0.00074306,0.00001751,-0.0013115
 9,0.00164035,0.00252297,-0.13627569,0.09368179,-0.09341626,0.00033445,
 0.00018867,0.00027036,-0.00002346,-0.00013139,-0.00003140,-0.00007682,
 -0.00019000,0.00002507,0.00005287,0.00013139,-0.00004441,-0.00026512,-
 0.00027036,0.00060003,0.00031617,-0.00001717,0.00005003,0.00031617,-0.
 00032454,0.00019000,-0.00041591,0.00073741,-0.00067034,0.00014262,0.00
 005003,-0.00002507,0.14283728,0.00573008,-0.00761484,0.00937012,-0.000
 74306,0.00060926,-0.00001750,-0.00059472,0.00044113,-0.00018291,0.0016
 4035,-0.00131159,-0.00252298,0.09368179,-0.13627569,0.09341626,-0.0002
 7036,-0.00026512,-0.00060003,0.00013139,0.00005288,0.00004441,-0.00001
 716,0.00031617,-0.00005003,-0.00013139,-0.00002346,0.00003140,0.000188
 68,0.00033445,-0.00027036,-0.00019000,-0.00007682,-0.00002507,0.000050
 03,0.00014262,0.00002507,0.00073741,-0.00041591,0.00067034,-0.00032454
 ,0.00031617,-0.00019000,-0.09922834,0.14283728,0.00724784,-0.00724784,
 0.00726731,-0.00070327,0.00091163,0.00035834,-0.00091164,0.00070327,0.
 00035834,0.00188767,-0.00188767,-0.00202442,-0.08242127,0.08242127,-0.
 11452233,-0.00018868,-0.00022418,-0.00026512,0.00003140,0.00004441,-0.
 00001488,0.00015496,0.00032454,0.00014262,-0.00004441,-0.00003140,-0.0
 0001487,0.00022418,0.00018867,-0.00026512,-0.00032454,-0.00015496,0.00
 014262,0.00001716,0.00015496,-0.00007682,0.00067034,-0.00067034,0.0007
 0350,-0.00015496,-0.00001717,-0.00007682,0.09696470,-0.09696470,0.1306
 6635,0.00726731,0.00724784,0.00724784,-0.00202443,0.00188767,0.0018876
 7,0.00035834,-0.00070327,-0.00091163,0.00035834,-0.00091163,-0.0007032
 7,-0.11452233,-0.08242127,-0.08242127,-0.00007682,-0.00015496,0.000017
 17,-0.00007682,0.00001716,-0.00015496,0.00070350,0.00067034,0.00067034
 ,-0.00026512,-0.00018868,0.00022418,-0.00001488,0.00003140,-0.00004441
 ,0.00014262,0.00015496,-0.00032454,-0.00026512,0.00022418,-0.00018867,
 0.00014262,-0.00032454,0.00015496,-0.00001487,-0.00004441,0.00003140,-
 0.01118935,-0.01174513,-0.01070436,0.13066635,-0.00937012,-0.00761484,
 -0.00573008,0.00252297,-0.00131159,-0.00164035,0.00018291,0.00044113,0
 .00059472,0.00001751,0.00060926,0.00074306,-0.09341626,-0.13627569,-0.
 09368179,-0.00002507,0.00014262,-0.00005003,0.00019000,0.00031617,0.00
 032454,-0.00067034,-0.00041591,-0.00073741,0.00027036,0.00033445,-0.00
 018867,-0.00003140,-0.00002346,0.00013139,0.00002507,-0.00007682,0.000
 19000,0.00060003,-0.00026512,0.00027036,0.00005003,0.00031617,0.000017
 17,-0.00004441,0.00005287,-0.00013139,0.01108498,0.01212283,0.01174513
 ,0.09696470,0.14283728,-0.00937012,-0.00573008,-0.00761484,0.00252297,
 -0.00164035,-0.00131159,0.00001750,0.00074306,0.00060926,0.00018291,0.
 00059472,0.00044113,-0.09341626,-0.09368179,-0.13627569,0.00019000,0.0
 0032454,0.00031617,-0.00002507,-0.00005003,0.00014262,-0.00067034,-0.0
 0073741,-0.00041591,0.00060003,0.00027036,-0.00026512,-0.00004441,-0.0
 0013139,0.00005288,0.00005003,0.00001716,0.00031617,0.00027036,-0.0001
 8868,0.00033445,0.00002507,0.00019000,-0.00007682,-0.00003140,0.000131
 39,-0.00002346,-0.00835096,-0.01108498,-0.01118935,0.09696470,0.099228
 34,0.14283728,-0.00761484,-0.00937012,0.00573008,0.00044113,0.00018291
 ,-0.00059472,-0.00131159,0.00252298,0.00164035,0.00060926,0.00001750,-
 0.00074306,-0.13627569,-0.09341626,0.09368179,-0.00002346,-0.00003140,
 -0.00013139,0.00033445,0.00027036,0.00018868,-0.00007682,0.00002507,-0
 .00019000,0.00031617,0.00019000,-0.00032454,0.00014262,-0.00002507,0.0
 0005003,-0.00041591,-0.00067034,0.00073741,0.00005288,-0.00004441,0.00
 013139,0.00031617,0.00005003,-0.00001716,-0.00026512,0.00060003,-0.000
 27036,0.01212283,0.01108498,-0.01174513,-0.01118935,-0.00835096,0.0110
 8498,0.14283728,0.00724784,0.00726731,-0.00724784,-0.00070327,0.000358
 34,0.00091163,0.00188767,-0.00202442,-0.00188767,-0.00091163,0.0003583
 4,0.00070327,-0.08242127,-0.11452233,0.08242127,0.00003140,-0.00001487
 ,0.00004441,-0.00018867,-0.00026512,-0.00022418,0.00015496,0.00014262,
 0.00032454,0.00001717,-0.00007682,0.00015496,-0.00015496,-0.00007682,-
 0.00001716,0.00067034,0.00070350,-0.00067034,-0.00004441,-0.00001488,-
 0.00003140,-0.00032454,0.00014262,-0.00015496,0.00022418,-0.00026512,0
 .00018868,-0.01174513,-0.01118935,0.01070436,-0.01070436,-0.01118935,0
 .01174513,0.09696470,0.13066635,0.00573008,0.00937012,-0.00761484,-0.0
 0074306,-0.00001751,0.00060926,0.00164035,-0.00252297,-0.00131159,-0.0
 0059472,-0.00018291,0.00044113,0.09368179,0.09341626,-0.13627569,0.000
 13139,0.00004441,0.00005287,-0.00027036,-0.00060003,-0.00026512,-0.000
 01717,-0.00005003,0.00031617,0.00005003,0.00002507,0.00014262,-0.00032
 454,-0.00019000,0.00031617,0.00073741,0.00067034,-0.00041591,-0.000131
 39,0.00003140,-0.00002346,-0.00019000,-0.00002507,-0.00007682,0.000188
 67,-0.00027036,0.00033445,0.01108498,0.00835096,-0.01118935,-0.0117451
 3,-0.01108498,0.01212283,-0.09922834,-0.09696470,0.14283728\\0.,0.,0.,
 0.00053081,0.00053081,0.00053081,-0.00053081,-0.00053081,0.00053081,-0
 .00053081,0.00053081,-0.00053081,0.00053081,-0.00053081,-0.00053081,-0
 .00011505,-0.00014412,-0.00011505,-0.00011505,-0.00011505,-0.00014412,
 -0.00014412,-0.00011505,-0.00011505,0.00011505,0.00011505,-0.00014412,
 0.00014412,0.00011505,-0.00011505,0.00011505,0.00014412,-0.00011505,0.
 00011505,-0.00014412,0.00011505,0.00011505,-0.00011505,0.00014412,0.00
 014412,-0.00011505,0.00011505,-0.00011505,0.00011505,0.00014412,-0.000
 14412,0.00011505,0.00011505,-0.00011505,0.00014412,0.00011505\\\@


 10 WHATSOEVER THY HAND FINDETH TO DO, DO IT WITH THY  
 MIGHT. FOR THERE IS NO WORK, NOR DEVICE, NOR KNOWLEDGE, NOR  
 WISDOM, IN THE GRAVE, WHITHER THOU GOEST.                    
 11 I RETURNED AND SAW UNDER THE SUN, THAT THE RACE IS NOT TO 
 THE SWIFT, NOR THE BATTLE TO THE STRONG, NEITHER YET BREAD TO
 THE WISE, NOR YET RICHES TO MEN OF UNDERSTANDING, NOR YET    
 FAVOR TO MEN OF SKILL. BUT TIME AND CHANCE HAPPEN TO THEM ALL.
 12 FOR MAN ALSO KNOWETH NOT HIS TIME. AS THE FISHES   
 THAT ARE TAKEN IN AN EVIL NET, AND AS THE BIRDS THAT ARE     
 CAUGHT IN THE SNARE. SO ARE THE SONS OF MEN SNARED IN AN EVIL
 TIME, WHEN IT FALLETH SUDDENLY UPON THEM.
                                         ECCLESIASTES 9
 Job cpu time:       0 days  0 hours 27 minutes 51.4 seconds.
 Elapsed time:       0 days  0 hours  2 minutes 19.4 seconds.
 File lengths (MBytes):  RWF=     63 Int=      0 D2E=      0 Chk=     10 Scr=      1
 Normal termination of Gaussian 16 at Fri Jun 17 17:37:54 2022.
